default_name
 77470
  34.4726512  66.5961257  79.1126405  34.3861430  65.6950488  78.6646699
  35.3528915  66.6298200  79.6067477  34.2420192  67.3154308  78.4421865
  33.4304355  66.6904761  80.1623516  33.8953809  66.8420124  81.1364983
  32.5006734  67.8702360  79.8758314  33.1149963  68.7473347  79.6723503
  31.9070106  67.6305042  78.9936788  31.5681051  68.1630321  81.0539044
  30.9944253  67.2551866  81.2404755  32.1999303  68.3765638  81.9160547
  30.4261233  69.5468859  80.7946336  31.5413745  70.9224278  80.4373251
  32.1311491  70.6916686  79.5501864  30.9588992  71.8266495  80.2606720
  32.2079373  71.0800996  81.2852254  32.6592237  65.3865850  80.1769896
  32.2103078  64.9576683  79.1262341  32.5444057  64.7276392  81.3306695
  33.0111464  65.0875841  82.1508476  31.8585421  63.4356501  81.4319677
  32.0085035  62.8464860  80.5272598  32.3659438  62.6436852  82.6491580
  32.1926219  63.2259189  83.5541795  31.6197855  61.3023897  82.7520128
  31.7930205  60.7193624  81.8474856  31.9852172  60.7480970  83.6164896
  30.5516619  61.4879560  82.8650452  33.8928862  62.4121718  82.5434533
  34.0562438  61.7604828  81.6851314  34.3486253  63.3838673  82.3531665
  34.5299597  61.7840354  83.7910479  34.0750219  60.8120385  83.9817140
  35.6004155  61.6580378  83.6287267  34.3674013  62.4354225  84.6497501
  30.3510288  63.6857587  81.4518019  29.8812998  64.5557708  82.1873824
  29.6073179  62.9486302  80.6294854  30.1045816  62.3208632  80.0140695
  28.1465256  62.9930726  80.5429075  27.7504153  63.6995525  81.2723469
  27.7166880  63.4442667  79.1391024  28.1448945  62.7238831  78.4421190
  26.6292642  63.3754476  79.1095493  28.1507426  64.8629315  78.7398335
  29.2387882  64.9242028  78.7622743  27.6496578  65.1897134  77.3275770
  26.5615907  65.1290951  77.3044625  27.9627785  66.1974276  77.0545050
  28.0679844  64.4751853  76.6186674  27.5949221  65.9159574  79.6969861
  27.9575621  65.7183497  80.7057194  27.9244004  66.9055465  79.3803495
  26.5056732  65.8763567  79.6887702  27.5905766  61.6065606  80.8398780
  28.1427111  60.6098738  80.3752234  26.4615948  61.5442710  81.5594459
  26.1314486  62.3291737  82.1026131  25.7034255  60.2935846  81.6156669
  26.3823928  59.4714400  81.8418985  24.6006199  60.3241990  82.6783232
  24.1226787  59.3448544  82.7019183  25.1544156  60.6575969  84.0734293
  25.6321325  61.6370718  84.0507338  24.3382211  60.6686582  84.7957888
  25.8860423  59.9037442  84.3641683  23.6211336  61.2824157  82.3670013
  22.9439455  61.2805077  83.0474519  25.0958549  60.0035649  80.2401464
  24.9184842  60.9112603  79.4163656  24.7095752  58.7511888  80.0012840
  24.9747468  58.0194600  80.6449891  23.9977706  58.3766534  78.7825608
  24.5991939  58.6166797  77.9057617  23.7219242  56.8637437  78.7901040
  24.6882295  56.3645914  78.8622164  23.1363476  56.6516436  79.6846506
  22.9731365  56.3501722  77.5564402  22.8180847  55.2785670  77.6818281
  22.0075487  56.8544016  77.5177758  23.7341025  56.6060182  76.2542967
  23.8676786  57.6789204  76.1159594  24.7096376  56.1221340  76.3021170
  22.9391902  56.0354149  75.0777461  22.7471843  54.9799007  75.2704220
  21.9917321  56.5700050  75.0096594  23.6745636  56.1767864  73.8093754
  24.5523410  55.6811338  73.8721050  23.1233659  55.7913531  73.0559020
  23.8522074  57.1548063  73.6304372  22.7167566  59.1924683  78.6055994
  22.4763774  59.7059588  77.5210478  21.9600906  59.4127649  79.6817105
  22.2024780  58.9626496  80.5527695  20.7526709  60.2269437  79.6375242
  20.0649060  59.8043352  78.9050757  20.0916880  60.1706496  81.0197451
  20.7647337  60.5987266  81.7626177  19.1620207  60.7394214  81.0019234
  19.8777186  59.1337223  81.2787778  21.0269292  61.6828112  79.2147790
  20.3087501  62.2325323  78.3792245  22.0985157  62.3056163  79.7327704
  22.6453974  61.8312146  80.4370166  22.5031851  63.6623109  79.3320193
  21.6655392  64.3515530  79.4387616  23.6498670  64.1441548  80.2242587
  24.3941061  63.3486036  80.2603918  24.0839988  65.0259844  79.7530836
  23.2068221  64.4922516  81.6460399  22.5675172  65.3747505  81.6218340
  22.6494066  63.6516595  82.0593133  24.4105118  64.7817480  82.5609633
  25.4385187  64.1288989  82.5042548  24.3194760  65.7631377  83.4165706
  25.0970799  65.9708716  84.0267183  23.4718519  66.3102531  83.4645229
  22.9598279  63.7127385  77.8689296  22.6908402  64.6924006  77.1661823
  23.6570858  62.6811425  77.4055151  23.9712167  61.9636001  78.0431310
  24.0402803  62.5774857  76.0118759  24.5694172  63.4787731  75.7023692
  24.9656458  61.3721849  75.8092363  25.8382706  61.4501952  76.4577265
  24.3805477  60.4970826  76.0920015  25.4162846  61.2339607  74.3732844
  24.6527781  60.4989652  73.4447154  23.7447329  59.9895603  73.7672985
  25.0629353  60.4225975  72.1000488  24.4808095  59.8523588  71.3761295
  26.2364898  61.0906019  71.6921409  26.6620696  61.0383867  70.3974423
  26.0869696  60.5151215  69.8343677  26.9961171  61.8283434  72.6165373
  27.9035276  62.3446335  72.3032464  26.5767171  61.8963647  73.9523209
  27.1554455  62.4694030  74.6767522  22.8148481  62.4691860  75.0983726
  22.7102069  63.2023817  74.1218526  21.8701192  61.5981717  75.4499267
  22.0316458  61.0304686  76.2695130  20.6613743  61.3547864  74.6659126
  20.9258821  61.1238024  73.6340302  19.8865386  60.1684704  75.2501986
  19.7858656  60.3796001  76.3148057  18.8985640  60.1422457  74.7905048
  20.5749934  58.8087002  75.0611801  21.4689917  58.6841269  74.1830562
  20.2003397  57.8503362  75.7671144  19.7841154  62.6108332  74.5734715
  19.2445620  62.8969859  73.5115111  19.7289040  63.4352266  75.6270127
  20.1379149  63.1353786  76.5004545  19.0465843  64.7295462  75.5884689
  18.0036151  64.6001907  75.2993641  19.0933627  65.3713857  76.9840132
  18.7668056  64.6280050  77.7112304  20.1247719  65.6550673  77.1933450
  18.1913823  66.6124253  77.0801076  18.4981453  67.2441794  76.2465105
  17.1544545  66.3065476  76.9411160  18.3212805  67.3994140  78.3937263
  17.5903251  68.4118101  78.5144299  19.1604121  67.0440130  79.2466374
  19.6553224  65.6771069  74.5403698  18.9419455  66.3391877  73.7810074
  20.9998193  65.7181782  74.4563025  21.5488399  65.2453562  75.1599466
  21.7048640  66.5125671  73.4393072  21.2740126  67.5117783  73.3757204
  23.2090938  66.6212591  73.7645880  23.6173965  65.6188581  73.8933570
  23.9615076  67.3416275  72.6174538  23.5540429  68.3443314  72.4883882
  25.0211665  67.4095238  72.8636525  23.8393510  66.7784924  71.6922209
  23.4352225  67.3762808  75.0884924  23.1756035  68.4195908  74.9090404
  22.7470220  66.9516925  75.8193853  24.8685678  67.2919208  75.6272686
  25.5573410  67.7167723  74.8970683  24.9398083  67.8500702  76.5608066
  25.1287603  66.2488731  75.8074110  21.4546296  65.9251634  72.0506486
  21.0528727  66.6589838  71.1436976  21.6390014  64.6220034  71.8781410
  21.9695112  64.0890938  72.6698922  21.4683248  63.9344613  70.6060492
  22.1470777  64.3699886  69.8727624  21.8318332  62.4561233  70.7930368
  21.1549416  62.0038574  71.5178632  21.7423602  61.9359899  69.8393302
  22.8568905  62.3764517  71.1549886  20.0409874  64.1003550  70.0482428
  19.8611031  64.3736370  68.8639204  19.0189969  64.0521888  70.9235265
  19.2130415  63.8047173  71.8833201  17.6297236  64.2507533  70.5282215
  17.3701369  63.6099678  69.6855426  16.7359136  63.8844603  71.7143783
  17.1166600  62.9633266  72.1555634  16.7958861  64.6894133  72.4468767
  15.2721136  63.6834411  71.2936244  14.8465220  64.6473397  71.0145686
  15.2436108  63.0121068  70.4353705  14.4250579  63.0815733  72.4121310
  14.7392133  63.1383104  73.5809711  13.3020755  62.4777120  72.0933897
  12.7267442  62.0726977  72.8179990  13.0196353  62.4214790  71.1253159
  17.3637758  65.6771673  70.0227190  16.5484146  65.8718866  69.1239240
  18.0950757  66.6715896  70.5192690  18.6830014  66.4843248  71.3188780
  18.0240537  68.0436641  70.0167917  16.9883945  68.3203447  69.8194165
  18.5965102  69.0044778  71.0654859  19.5985859  68.7195286  71.3860283
  18.6064298  70.0380827  70.7195632  17.5687178  68.9835406  72.5541193
  18.2904127  69.8701434  73.2338180  18.7260549  68.2490545  68.6677186
  18.5498445  69.3035222  68.0506539  19.5218545  67.2846475  68.2283283
  19.6893428  66.5148148  68.8603130  20.2300783  67.2984997  66.9506444
  20.3506688  68.3216876  66.5947740  21.6254276  66.6736583  67.1340528
  21.4648766  65.6626352  67.5084253  22.0996567  66.6265112  66.1537550
  22.5346925  67.4409033  68.1060319  22.0267405  67.5502474  69.0642227
  23.8432089  66.6758125  68.3075835  24.3519894  66.5664697  67.3498333
  24.4833443  67.2252591  68.9978269  23.6283683  65.6895528  68.7189660
  22.8480990  68.8379900  67.5741756  21.9203244  69.3962710  67.4490516
  23.4932140  69.3600746  68.2808265  23.3547330  68.7560478  66.6125590
  19.4557951  66.5959477  65.8305648  19.8623735  66.6659641  64.6766334
  18.3519048  65.9453426  66.1525648  18.1107658  65.8207586  67.1254113
  17.4964636  65.3230434  65.1401415  18.1099106  64.6722203  64.5170754
  16.3873041  64.4775910  65.7917592  15.7757813  65.1292995  66.4157906
  15.5062794  63.8087704  64.7379929  16.1170635  63.1565001  64.1138237
  14.7331534  63.2193928  65.2309540  15.0391347  64.5725515  64.1162889
  16.9976280  63.3601692  66.6501852  17.6146146  63.7993720  67.4341051
  16.1994053  62.7722847  67.1033210  17.6127090  62.7145462  66.0233302
  16.9122405  66.3996946  64.2267837  16.3264363  67.3717282  64.6935739
  17.0713868  66.2175943  62.9059317  17.7120207  65.4878364  62.6281892
  16.5177226  67.0944351  61.8619029  16.9063851  66.7915483  60.8896373
  14.9909195  67.0135369  61.8246637  14.5918755  67.5096621  62.7093799
  14.6344760  67.5245907  60.9303080  14.5555909  65.6649130  61.8029224
  13.5962297  65.6386855  61.7797284  17.0087256  68.5529901  61.9190917
  16.3029692  69.4591140  61.4786177  18.2197419  68.7968736  62.4496821
  18.6674094  68.0979272  63.0251533  18.8491657  70.1238152  62.3466879
  18.1663636  70.8400739  61.8896824  19.3375127  70.6965915  63.6850536
  19.8016892  71.6664139  63.5059338  18.1720873  70.8624002  64.6566810
  17.7076641  69.8928545  64.8366626  18.5390049  71.2694451  65.5989052
  17.4361542  71.5434766  64.2293183  20.4281613  69.8885681  64.3599891
  21.2979546  69.8332065  63.7053924  20.7094554  70.3685788  65.2973060
  20.0624156  68.8820844  64.5632658  19.9631810  70.1139977  61.2906522
  20.7477651  69.1680811  61.2376571  20.0682505  71.1703585  60.4564723
  19.2105053  72.3434498  60.3770923  19.0386156  72.7085882  61.3896278
  18.2613176  72.0419226  59.9341215  19.9598601  73.3453015  59.5148734
  20.5970639  73.9855159  60.1249521  19.2669266  73.9623485  58.9428615
  20.7874282  72.4528759  58.5895618  21.7012149  72.9615562  58.2824182
  20.2407725  72.1238313  57.7058216  21.1332694  71.2467150  59.4696276
  21.1092253  70.3422391  58.8618089  22.5092487  71.3749108  60.1417085
  22.6254949  72.0145838  61.1985147  23.5843344  70.8279595  59.5338311
  23.5988049  70.2315490  58.2320300  23.1964489  70.9568621  57.5248307
  22.9542368  69.3529039  58.2568040  25.0571971  69.8764960  57.9429082
  25.5621945  70.6854135  57.4149601  25.1301492  68.9599655  57.3574585
  25.6349432  69.6773499  59.3400941  26.7130550  69.8376933  59.3480911
  25.4078814  68.7148073  59.7984108  24.9377792  70.7978083  60.1087503
  24.8544351  70.5492147  61.1667453  25.6531220  72.1423194  59.9561353
  26.7801744  72.2274303  59.4709890  24.9793411  73.2296157  60.3327667
  24.0553411  73.1057484  60.7213285  25.4671853  74.5956566  60.1220672
  26.3631379  74.6039386  59.5013422  24.4046521  75.4887989  59.4626324
  24.8587351  76.4640166  59.2869639  23.8777700  74.9296956  58.1465626
  23.4230957  73.9546261  58.3215208  23.1315412  75.6094374  57.7352322
  24.7012732  74.8245400  57.4402444  23.3254612  75.6934269  60.3427303
  22.6692148  76.2521135  59.9198706  25.9654004  75.2249260  61.4112683
  25.5350763  74.8888627  62.5205098  26.8236977  76.2277644  61.2848209
  27.2055298  76.4097455  60.3676587  27.2877000  77.0547216  62.4104769
  27.8066624  76.4354723  63.1421240  28.2590517  78.1308527  61.9007477
  27.7638691  78.6952563  61.1105945  28.4982523  78.7986565  62.7283474
  29.5585258  77.5086668  61.3506162  30.0137967  76.8886445  62.1228866
  29.3214877  76.8923099  60.4834258  30.5327976  78.6073059  60.9416583
  30.0741378  79.2374401  60.1796471  30.7847962  79.2145147  61.8110798
  31.7730484  78.0301366  60.3932903  31.6479849  77.1415280  59.9297891
  32.9873063  78.5480289  60.4464546  33.2294625  79.7032076  61.0108122
  32.4722667  80.2284531  61.4241786  34.1724732  80.0643764  61.0304977
  33.9711827  77.8930161  59.9275072  33.8032871  76.9984316  59.4897518
  34.9042192  78.2782084  59.9616888  26.1308796  77.7184508  63.1620881
  26.2217481  77.9448886  64.3626079  25.0254366  78.0178851  62.4892518
  25.0283659  77.9132793  61.4846880  23.8355202  78.5694457  63.1225588
  24.1029416  79.4020507  63.7732154  22.8793940  79.0796978  62.0441496
  23.4470307  79.6822812  61.3350791  22.4495181  78.2211773  61.5281560
  21.7483232  79.9322997  62.6526313  21.2027358  79.3549417  63.3990179
  22.2066523  80.7992686  63.1284479  20.7568246  80.4228129  61.5921991
  20.6952834  79.9373978  60.4983409  19.9184602  81.3960420  61.9034552
  19.2591538  81.7299419  61.2150314  19.9409932  81.8013478  62.8282907
  23.1575502  77.5407812  64.0407266  22.7832025  77.8806736  65.1641299
  23.0661990  76.2805353  63.6197975  23.3321535  76.0842895  62.6654103
  22.5477219  75.1790453  64.4376235  21.5607322  75.4355956  64.8225033
  22.4291900  73.9023123  63.5973337  23.4090534  73.6293988  63.2055619
  22.0470080  73.0906029  64.2163367  21.5443414  74.1327256  62.5278008
  21.4672285  73.3353243  61.9988353  23.4274043  74.9283377  65.6606115
  22.9125656  74.8425550  66.7715644  24.7515211  74.9503285  65.4971364
  25.1223654  74.9928575  64.5586456  25.6947624  74.8408723  66.6121185
  25.5220517  73.9226013  67.1734104  27.1214039  74.8104341  66.0494495
  27.1744131  73.9761739  65.3499503  27.2895390  75.7445459  65.5134776
  28.2029643  74.6395584  67.1358572  28.0796422  75.4399198  67.8654559
  28.1048608  73.2895391  67.8407577  28.2285570  72.4886312  67.1118238
  28.8867271  73.2160970  68.5966625  27.1291293  73.1982973  68.3179613
  29.5929355  74.7528393  66.4924038  29.6984798  75.7314895  66.0242120
  30.3592653  74.6324242  67.2581322  29.7089231  73.9751140  65.7375599
  25.5184971  75.9790005  67.6285455  25.5532523  75.7462752  68.8373982
  25.2817620  77.2112994  67.1675282  25.3568390  77.3835997  66.1751697
  25.0191577  78.3499858  68.0527329  25.7954780  78.4283901  68.8138366
  25.0137798  79.6459926  67.2196402  25.9028585  79.6527205  66.5890905
  24.1232255  79.6466537  66.5911399  25.0105620  80.8901597  68.1090266
  24.1354845  80.8416426  68.7570900  25.9144044  80.8741487  68.7180541
  24.9686489  82.1947772  67.2853699  24.1342574  82.1384820  66.5862843
  24.8154056  83.0317904  67.9665635  26.2101059  82.4274978  66.5221138
  26.9597510  81.7780074  66.7126235  26.4149295  83.3845912  65.6314795
  25.4725338  84.2401166  65.3221033  24.5687314  84.1743328  65.7681008
  25.6540778  84.9615785  64.6389970  27.5655326  83.5091340  65.0372713
  28.3152811  82.8686706  65.2558669  27.7036547  84.2457018  64.3601532
  23.7222555  78.1619804  68.8485524  23.7185583  78.4246957  70.0515790
  22.6591585  77.6523433  68.2269901  22.7124048  77.5235437  67.2266527
  21.3994090  77.3152550  68.9074104  21.0313084  78.1825466  69.4555038
  20.3330821  76.8924346  67.8829691  20.7751024  76.1266974  67.2455024
  19.4967166  76.4654074  68.4363593  19.8318503  78.0530182  67.0147978
  19.3214433  78.7811273  67.6452283  20.6805930  78.5295785  66.5242592
  18.8555534  77.5233299  65.9499233  19.3794227  76.7834877  65.3447015
  18.0187437  77.0472495  66.4609970  18.3314634  78.6421287  65.0467445
  17.7589037  79.3401834  65.6574782  19.1839959  79.1596670  64.6069245
  17.4659817  78.1061302  63.9648059  16.6757174  77.6268998  64.3721391
  17.1373860  78.8675027  63.3882325  17.9964597  77.4595993  63.3985111
  21.6066635  76.1980327  69.9398594  21.1179454  76.3143711  71.0622479
  22.3934826  75.1816944  69.6064525  22.7392878  75.1312753  68.6588365
  22.7242892  74.0903211  70.5252322  21.8204399  73.6158996  70.9074361
  23.5411537  73.0404064  69.7511544  23.0186740  72.8566443  68.8123543
  24.5253919  73.4597621  69.5425492  23.7010034  71.7103869  70.5198684
  24.0525697  71.9348221  71.5269090  22.3875091  70.9482245  70.5999942
  22.0355261  70.7230119  69.5932737  22.5393294  70.0181921  71.1477999
  21.6448616  71.5564002  71.1164219  24.7403446  70.8467201  69.8096407
  25.6946029  71.3728779  69.7841744  24.8592505  69.9054195  70.3462185
  24.4103205  70.6443328  68.7907087  23.4742816  74.6018340  71.7583385
  23.1181304  74.2628705  72.8825116  24.4456722  75.5061873  71.5798470
  24.7396939  75.7012740  70.6334899  25.1792307  76.1409245  72.6811742
  25.5671582  75.3834290  73.3622117  26.3591135  76.9441495  72.1176761
  26.9817409  76.2372737  71.5692594  25.9364860  77.6701833  71.4231539
  27.2134763  77.6739660  73.1630368  28.0250418  78.1691195  72.6298528
  26.5782762  78.4239390  73.6343789  27.7981028  76.7496194  74.2395238
  26.9846169  76.2282239  74.7439903  28.4575773  76.0218005  73.7667950
  28.5917226  77.5683924  75.2628162  29.5157873  77.9059780  74.7935178
  27.9944257  78.4332518  75.5515269  28.9128523  76.7690911  76.4633357
  29.4666828  75.9678743  76.1960848  29.4346501  77.3365309  77.1158993
  28.0567193  76.4565375  76.8985893  24.2748851  76.9984467  73.5748479
  24.4870181  77.0419622  74.7890930  23.2658234  77.6615338  73.0033246
  23.1952545  77.6829535  71.9960210  22.2716837  78.4064317  73.7870083
  22.7704757  79.0719709  74.4915389  21.3988728  79.2503634  72.8493061
  21.0710752  78.6105072  72.0300187  20.5307130  79.5897458  73.4143001
  22.1454151  80.4634563  72.2825839  22.3380638  81.1571855  73.1009524
  23.0926575  80.1341606  71.8555028  21.3468076  81.1954641  71.1974439
  20.3563279  80.7230536  70.6670786  21.7628102  82.3820351  70.8179891
  21.2562534  82.8872315  70.1050527  22.5873372  82.7837954  71.2408901
  21.3877959  77.4696231  74.6205868  21.0235116  77.8175704  75.7413734
  21.0830521  76.2801749  74.1067207  21.3788768  76.0875874  73.1604136
  20.2443774  75.2872905  74.7894639  19.4375181  75.7729098  75.3383273
  19.6297111  74.3624106  73.7303248  19.2629220  74.9742258  72.9061603
  20.4053760  73.6892426  73.3652374  18.4716911  73.5404723  74.3115101
  18.8691322  72.7639687  74.9651028  17.8130890  74.1940890  74.8834633
  17.6812928  72.8916478  73.1698744  17.3270829  73.6668639  72.4904082
  18.3297212  72.2030110  72.6281924  16.5200354  72.1441813  73.6789383
  16.4589624  72.0684275  74.6842397  15.5776123  71.5886489  72.9494944
  15.5554105  71.6975627  71.6527605  16.2780890  72.2219112  71.1806434
  14.8156064  71.2572256  71.1246574  14.6346412  70.9002694  73.5111590
  14.6235588  70.7898474  74.5150436  13.9150575  70.4772947  72.9424847
  20.9994174  74.5262677  75.8768396  20.4228824  74.2350134  76.9190321
  22.2963450  74.2746795  75.6693155  22.6631363  74.5157849  74.7596828
  23.1762031  73.5844932  76.6105794  22.6566210  73.3961088  77.5500713
  23.6021467  72.2391301  76.0074084  24.1713419  72.3798425  75.0885417
  24.2102057  71.6967230  76.7313965  22.4362266  71.3393360  75.6608442
  21.7735116  70.6192223  76.6672373  22.1095586  70.7061521  77.7004921
  20.6913399  69.7962888  76.3523533  20.1811849  69.2355070  77.1355304
  20.2596617  69.6922474  75.0181478  19.4182032  69.0452165  74.7703607
  20.9088035  70.4185065  74.0063694  20.5713615  70.3439887  72.9725995
  21.9963496  71.2427771  74.3315163  22.5023999  71.8106059  73.5507580
  24.3751609  74.4670834  77.0167216  25.5236575  74.1802125  76.6689750
  24.1353809  75.5713747  77.7607702  22.8603139  75.9818079  78.3204467
  22.3927246  75.1133686  78.7844227  22.2288195  76.3437031  77.5090617
  23.1942175  77.0737480  79.3273157  23.4143765  76.6523994  80.3081798
  22.3786116  77.7914606  79.4155036  24.4293784  77.7255549  78.7105554
  25.0630309  78.2020876  79.4585528  24.1538724  78.4560139  77.9498809
  25.1762388  76.5556738  78.0649628  25.5993807  76.8870446  77.1166789
  26.2924379  76.0096715  78.9576072  27.4209951  76.5005585  78.8804676
  26.0078587  74.9975713  79.7749865  25.0430271  74.7035320  79.8273339
  26.9874270  74.3257449  80.6361144  27.5531524  75.0618347  81.2072761
  26.2638553  73.3964738  81.6160757  26.9997874  72.8553769  82.2108171
  25.6300622  73.9897693  82.2751711  25.4627207  72.4699117  80.8974242
  25.0116098  71.8901574  81.5154725  28.0304294  73.5279233  79.8503022
  29.1595872  73.3750112  80.3113702  27.7057114  73.0637745  78.6455579
  26.7555186  73.1909749  78.3276693  28.6191182  72.3042718  77.8041342
  29.2743812  71.6952466  78.4268844  27.8403977  71.3804542  76.8637011
  27.2449342  72.0136749  76.2060127  28.5709169  70.8285502  76.2722252
  26.9187669  70.3900318  77.5930729  26.1322182  70.9422368  78.1073797
  26.4726362  69.7370762  76.8429273  27.6550994  69.5293437  78.6116383
  28.8424561  69.2730370  78.4932881  26.9880645  69.0741875  79.6473546
  27.4573426  68.5017095  80.3344852  26.0089119  69.2987496  79.7519175
  29.5595613  73.2309828  77.0278055  29.1794776  74.3241600  76.6003489
  30.8011229  72.8081829  76.8324111  31.1448974  71.9962688  77.3250712
  31.7368312  73.5611780  76.0003207  31.6941625  74.6160669  76.2714073
  33.1790368  73.0630873  76.1900332  33.8641417  73.8574286  75.8938027
  33.3307945  72.8271381  77.2433126  33.4265446  71.9157182  75.4118878
  34.3315036  71.6257620  75.5481752  31.3091460  73.5288287  74.5284043
  30.6709133  72.5887680  74.0645090  31.6866181  74.5610867  73.7745354
  32.1080481  75.3772219  74.1945585  31.4127723  74.5837477  72.3386371
  30.3534160  74.4120250  72.1479155  31.7950473  75.9637947  71.7799519
  31.2531858  76.7223280  72.3448525  32.8668918  76.1035052  71.9204167
  31.4513391  76.0958456  70.2806413  32.1029170  75.4213711  69.7250955
  30.4118292  75.8093787  70.1210863  31.6535990  77.5175450  69.7513610
  31.8456461  78.4708584  70.4810922  31.5994909  77.7101470  68.4569245
  31.7296470  78.6388074  68.0817570  31.4278659  76.9291051  67.8399806
  32.1333023  73.4417276  71.6121960  31.5738742  72.8731285  70.6805785
  33.3387689  73.0779958  72.0605749  33.7647788  73.6423099  72.7817992
  34.1064022  71.9692318  71.5068310  34.1971963  72.0956120  70.4279966
  35.5071860  72.0130655  72.1242971  35.4334816  71.8787453  73.2034754
  36.1168930  71.2152643  71.7001852  35.9695916  72.9764293  71.9093307
  33.4074003  70.6115181  71.7309489  33.2695487  69.8350335  70.7882471
  32.8849258  70.3690744  72.9428971  33.0845442  71.0197891  73.6891024
  32.0874344  69.1710901  73.2558539  32.6787714  68.2800523  73.0449714
  31.6863506  69.1543612  74.7378802  31.1501731  70.0809755  74.9428193
  30.8061401  67.9623804  75.1153933  31.3418592  67.0353468  74.9111545
  30.5601989  68.0131697  76.1760688  29.8880168  67.9877185  74.5284451
  32.8369281  69.0843212  75.5436907  32.5797289  69.0741887  76.4685400
  30.8427481  69.0901526  72.3701101  30.6117201  68.0677908  71.7303944
  30.0630254  70.1803881  72.2791800  30.2945382  70.9990557  72.8235003
  28.8464298  70.2084434  71.4678102  28.1964469  69.3768992  71.7401252
  28.0863016  71.5244690  71.7047381  28.7850095  72.3371204  71.5059815
  27.2757889  71.5566211  70.9766341  27.5070519  71.6809063  73.1255728
  28.3014588  71.5748187  73.8643312  26.8820695  73.0674993  73.2468728
  26.0872101  73.1741762  72.5086876  26.4676200  73.1935639  74.2470928
  27.6442589  73.8267444  73.0716164  26.4311208  70.6350885  73.4265432
  26.8606905  69.6367705  73.3432930  26.0519230  70.7837474  74.4375876
  25.6133171  70.7387941  72.7134223  29.1472173  70.0287750  69.9723018
  28.4269681  69.3014125  69.3081123  30.2151524  70.6322707  69.4667509
  30.7290434  71.2818872  70.0446901  30.6384893  70.4554465  68.0748745
  29.8087055  70.6509618  67.3956604  31.7746408  71.4498939  67.7636769
  31.3524801  72.4486777  67.8746296  32.5539282  71.3003154  68.5109636
  32.3811275  71.3017693  66.3512708  32.8013202  70.2988922  66.2752670
  31.3582320  71.5112399  65.2347652  30.9379117  72.5141325  65.3098394
  31.8464586  71.3939516  64.2673051  30.5599149  70.7752101  65.3298989
  33.5021224  72.3302049  66.1723951  34.2754075  72.1595206  66.9213921
  33.9331409  72.2290766  65.1763543  33.0966503  73.3348904  66.2919712
  31.0653364  69.0143982  67.7875080  30.7419043  68.4766918  66.7315945
  31.7772989  68.3686337  68.7185352  32.0934486  68.8757650  69.5327628
  32.1904291  66.9776338  68.5664907  32.6876167  66.8446990  67.6056410
  33.1591095  66.5789995  69.6760104  33.9597538  67.3147388  69.7518760
  32.6299508  66.5192599  70.6270741  33.7093463  65.3147494  69.3629650
  34.3214502  65.0521140  70.0543052  30.9790312  66.0425628  68.5299334
  30.8508355  65.2586108  67.5872404  30.0567627  66.1870528  69.4886682
  30.2591552  66.8087351  70.2585044  28.7995625  65.4187537  69.5229649
  29.0024717  64.3478799  69.5104639  27.9861410  65.7727767  70.7844244
  27.8894691  66.8565042  70.8499205  26.5797240  65.1329472  70.7232489
  26.6755783  64.0491198  70.6582036  26.0215773  65.3945153  71.6222233
  26.0492289  65.5035499  69.8461356  28.7303042  65.2993401  72.0491299
  28.7235025  64.2094486  72.0353090  29.7569056  65.6567991  71.9690550
  28.1155248  65.7986043  73.3667348  27.0890012  65.4411314  73.4477427
  28.6986495  65.4206996  74.2065281  28.1224023  66.8884827  73.3814876
  27.9969608  65.6580488  68.2414165  27.6116317  64.7058300  67.5689116
  27.8044607  66.9315664  67.8565129  28.1461455  67.6775842  68.4454171
  27.0580240  67.2857655  66.6558875  26.0433523  66.8913594  66.7105178
  26.9844388  68.8108474  66.5335341  26.5925667  69.1750043  67.4832316
  27.9724428  69.2377200  66.3611160  26.0725554  69.3662430  65.4432238
  26.1510564  70.7330065  65.1184252  26.9091507  71.3517719  65.5985524
  25.2679223  71.3011244  64.1885444  25.3195078  72.3620729  63.9439468
  24.3072278  70.4830552  63.5693256  23.6163375  70.9283924  62.8534727
  24.2297245  69.1216915  63.8584053  23.4922985  68.4911463  63.3617004
  25.1064356  68.5671015  64.7926154  25.0508305  67.5043457  65.0283234
  27.6755142  66.6627225  65.3976160  26.9804668  66.0430589  64.6054468
  28.9969510  66.7557185  65.2459761  29.5390440  67.2690882  65.9261864
  29.6929506  66.1767429  64.1004536  29.2696162  66.5722333  63.1771582
  31.1799334  66.5156306  64.1393544  31.6070672  66.0832910  65.0441961
  31.6562739  66.0715844  63.2652705  31.3989928  67.9149405  64.1362047
  32.3423444  68.0911957  64.1611371  29.5276966  64.6531561  64.0384172
  29.3200025  64.1089295  62.9535350  29.6020216  63.9626354  65.1756973
  29.8197038  64.4640436  66.0249932  29.4795908  62.5046164  65.2421016
  30.0808188  62.0377198  64.4619532  29.9799341  62.0135766  66.6063811
  29.4963762  62.6013658  67.3866214  29.7066167  60.9645778  66.7203944
  31.5047001  62.1610366  66.7252682  31.9912518  61.5276165  65.9835491
  31.7248051  63.2066333  66.5099002  32.0652020  61.8185084  68.1016407
  33.1400375  61.2692692  68.2191305  31.3940580  62.1619771  69.1749920
  31.7603303  61.9377852  70.0891495  30.5141264  62.6490445  69.0823249
  28.0453765  62.0286506  64.9570422  27.8603503  61.1218214  64.1497615
  27.0398301  62.6700549  65.5475733  27.2442978  63.3573288  66.2588727
  25.6355091  62.3610352  65.2631100  25.4553855  61.2954416  65.4051132
  24.7085936  63.1476534  66.2101900  25.0504011  64.1825552  66.2258485
  23.6999403  63.1048790  65.7992291  24.7022030  62.5894638  67.6404520
  25.7351221  62.7251054  67.9610456  24.0392874  63.1352731  68.3118196
  24.3468107  61.0907679  67.6747425  25.0917205  60.3088855  68.3096491
  23.4074253  60.6692369  66.9808148  25.2795462  62.6402573  63.8001515
  24.6741861  61.8031256  63.1294641  25.7503057  63.7621924  63.2611069
  26.2182535  64.4421684  63.8431350  25.5188889  64.0933976  61.8627627
  24.4606051  63.9960642  61.6205628  25.9483348  65.5381399  61.6047692
  25.6157351  66.2235465  62.3843168  27.0378485  65.5220378  61.5764718
  25.4195638  65.9979507  60.2746454  26.2552060  66.0780464  59.1478566
  27.3201915  65.8693728  59.2496437  25.7253439  66.4243183  57.8974056
  26.3768276  66.4973382  57.0265789  24.3443951  66.6873922  57.7697632
  23.8251951  67.0122688  56.5513989  24.4860429  67.0325551  55.8553613
  23.4985091  66.6087698  58.8869138  22.4315767  66.8103824  58.7914777
  24.0372494  66.2676778  60.1320408  23.3906889  66.2069490  61.0074674
  26.2126566  63.1129553  60.9051781  25.6282163  62.6999501  59.9046117
  27.4149355  62.6342109  61.2314589  27.9083507  63.0361721  62.0157216
  28.0805108  61.5784243  60.4570829  28.1602351  61.8803163  59.4127628
  29.4857494  61.3234080  61.0002671  29.4346885  61.3150907  62.0890384
  29.8172532  60.3476584  60.6451361  30.4787918  62.3967152  60.5442459
  30.5738419  62.3689135  59.4587536  30.0743004  63.3620990  60.8484217
  31.8656832  62.2333600  61.1595386  32.1761100  61.3020852  61.8843645
  32.7837889  63.1313536  60.8696637  33.7101162  63.0472547  61.2632961
  32.5575258  63.9001789  60.2549979  27.2852851  60.2681013  60.4543438
  27.2118170  59.6034220  59.4208768  26.6618987  59.8865091  61.5889648
  26.8336450  60.4018357  62.4404583  25.7808684  58.7134544  61.6508862
  26.3130622  57.8356259  61.2844356  25.3273342  58.4453992  63.0991928
  24.8498289  59.3576638  63.4567699  24.5911810  57.6425854  63.0583455
  26.4633160  58.0509376  64.0597568  26.8161335  57.0510612  63.8070360
  27.2832729  58.7617341  63.9570872  25.9545180  58.0628160  65.5083276
  25.3709698  58.9707270  65.6608664  25.3158961  57.1919416  65.6561088
  27.1147136  58.0241978  66.5166429  27.5788850  57.0394410  66.4627943
  27.8410463  58.7839352  66.2279577  26.6593776  58.2786839  67.8987886
  25.9866553  57.5745525  68.1666383  27.4505728  58.2441664  68.5256210
  26.2296182  59.1913093  67.9489967  24.5622888  58.8985947  60.7448676
  24.2026396  57.9673326  60.0181838  23.9523116  60.0916514  60.7397061
  24.2406464  60.7655119  61.4345977  22.8406171  60.4376654  59.8598450
  22.0238795  59.7256936  59.9787359  22.3279759  61.8379040  60.2255182
  21.9558703  61.9166587  61.2470045  23.1348102  62.5555711  60.0769506
  21.2054869  62.2620709  59.3261223  19.8995904  61.7966745  59.3725698
  19.2315922  62.3915404  58.3729243  18.1728565  62.1668458  58.2437345
  20.0487557  63.1976442  57.6840771  19.8138260  63.7583893  56.8775581
  21.2929953  63.1371736  58.2677123  22.1141050  63.7289290  57.8631069
  23.2302036  60.3342727  58.3803916  22.5979158  59.5927917  57.6265726
  24.3294351  60.9743278  57.9671063  24.8039141  61.5720844  58.6286621
  24.8222766  60.9373394  56.5839486  24.0574821  61.2297729  55.8644549
  26.0521813  61.8523239  56.4261556  26.7325377  61.6509131  57.2535910
  26.7857833  61.6187718  55.0890746  26.1061535  61.8204469  54.2611065
  27.6449995  62.2863180  55.0240336  27.1251991  60.5843186  55.0361340
  25.6748195  63.3412572  56.5700953  25.2426711  63.4521132  57.5646100
  26.6092741  63.8998207  56.5162353  24.6933076  63.8846061  55.5226888
  23.7583836  63.3268005  55.5762621  24.4985076  64.9389360  55.7190066
  25.1249861  63.7745058  54.5278866  25.1213739  59.5130208  56.1219938
  24.7458224  59.1466249  55.0096687  25.7362216  58.6705984  56.9630745
  26.1021005  59.0146174  57.8393638  25.9748256  57.2646067  56.6130379
  26.5502645  57.2044842  55.6892661  26.7647414  56.5645181  57.7301408
  26.3113758  56.8331173  58.6842966  26.6819960  55.4881744  57.5793515
  28.2489082  56.9684249  57.7363217  28.7153823  56.6295651  56.8112937
  28.3236647  58.0537539  57.8039569  28.9630429  56.3338095  58.9286207
  28.4757702  56.6644886  59.8458533  28.8856844  55.2496078  58.8472461
  30.4397538  56.7389527  58.9607608  30.8936912  56.4342945  58.0177736
  30.4899203  57.8238155  59.0537935  31.1754543  56.1099214  60.0911507
  31.1294556  55.1046632  60.0048963  32.1409320  56.4057785  60.0706243
  30.7552485  56.3924377  60.9650562  24.6804592  56.5058453  56.3147783
  24.6783270  55.6408616  55.4450499  23.5772314  56.8254103  57.0091109
  23.6592892  57.5039726  57.7526961  22.2640832  56.1936346  56.7807287
  22.3858084  55.1173935  56.6583066  21.3345258  56.4500396  57.9795049
  21.2967129  57.5279090  58.1371977  20.3433512  56.0884087  57.7058339
  21.7925053  55.7587065  59.2743591  21.7004659  54.6782680  59.1635333
  22.8322771  56.0153591  59.4771053  20.9134141  56.2295115  60.4398214
  20.8538282  57.3176179  60.4158866  19.9153715  55.8087227  60.3175625
  21.4419082  55.8156502  61.7467598  22.0509720  55.0099794  61.7408222
  21.1794449  56.4023058  62.9074567  20.3459390  57.4041930  62.9996303
  19.8830176  57.7498554  62.1711852  20.1684247  57.8283472  63.8988974
  21.7575648  55.9967897  64.0002394  22.4123541  55.2285423  63.9663737
  21.5488369  56.4521495  64.8772678  21.5931825  56.6813014  55.4980197
  20.8864666  55.9069251  54.8626843  21.7913527  57.9383891  55.1139298
  22.3829862  58.5197723  55.6901787  21.1088521  58.5583858  53.9650425
  20.2919350  57.9177607  53.6328602  20.5348890  59.9303608  54.3384483
  20.0525164  60.3499936  53.4556543  19.5208493  59.8350634  55.4748937
  20.0026415  59.4159192  56.3582362  19.1398389  60.8295975  55.7069114
  18.6947530  59.1915076  55.1724019  21.5674279  60.7877840  54.7451802
  21.1998775  61.6438059  54.9769854  21.9747573  58.6711696  52.7094064
  21.4470568  58.9588435  51.6369486  23.2668942  58.3818416  52.7815496
  23.5971209  58.0529751  53.6775945  24.2407074  58.5639344  51.7094269
  24.4107987  59.6234540  51.5181514  25.5679213  57.9239937  52.1403643
  25.9029601  58.3594555  53.0817575  25.4526608  56.8466864  52.2596293
  26.6814475  58.1306974  51.1501108  27.4051387  59.2912713  50.9808411
  28.3207366  59.0761639  50.0316819  29.0011368  59.8844494  49.7636722
  28.2157582  57.8318589  49.5672880  28.7729392  57.3901899  48.8499472
  27.1744031  57.2202318  50.2589474  26.9006516  56.1898144  50.0322288
  23.7921304  57.9997193  50.3608120  23.8064914  58.7038311  49.3542151
  23.3142063  56.7556483  50.3434678  23.2949614  56.2214125  51.2003932
  22.8786342  56.0988331  49.1030015  23.7196771  56.0477786  48.4115252
  22.4477282  54.6717314  49.4559249  21.6003756  54.7063454  50.1406844
  22.1585485  54.1437491  48.5472391  23.2772279  54.1482528  49.9313191
  21.7523406  56.8633915  48.3841884  21.7448667  56.9205926  47.1595577
  20.8268701  57.4881243  49.1232082  20.8768356  57.3713836  50.1251934
  19.7179828  58.2763193  48.5681734  19.1280014  57.6757118  47.8758643
  18.8074889  58.7319500  49.7236055  18.4302675  57.8326235  50.2104476
  19.4297774  59.2895741  50.4235428  17.6272263  59.6064905  49.2802489
  18.0023478  60.4128869  48.6500826  16.9291693  58.9944569  48.7090805
  16.9077136  60.2014798  50.4969942  16.3979324  59.4034538  51.0367873
  17.6413239  60.6714587  51.1520021  15.8828175  61.2475843  50.0446344
  16.3666011  61.9048754  49.3221232  15.0561096  60.7252031  49.5632084
  15.3650969  62.0542628  51.1776261  16.1309289  62.5387332  51.6235964
  14.6956425  62.7275821  50.8332833  14.9163972  61.4454394  51.8470301
  20.2119075  59.4766409  47.7610468  19.6150240  59.8108401  46.7403878
  21.2835177  60.1151962  48.2083775  21.7171727  59.7884263  49.0600020
  21.8161549  61.3248048  47.5779572  21.0128640  61.9080408  47.1277811
  22.5021948  62.1803528  48.6473383  23.2884706  61.6066750  49.1380149
  22.9295929  63.0842594  48.2133064  21.5574602  62.6273757  49.7282823
  20.5391089  63.5546917  49.5923675  19.9371940  63.6828851  50.7779458
  19.1129681  64.3900734  50.8708731  20.4989797  62.8665949  51.6769275
  20.2486620  62.7411054  52.6473364  21.5282136  62.1920031  51.0233608
  22.1337265  61.4653345  51.5650323  22.7673052  61.0379690  46.4090593
  23.0340431  61.9230991  45.6076265  23.2425055  59.7942193  46.2832765
  22.9922242  59.1269508  46.9989660  24.2135217  59.3896931  45.2672194
  24.6061291  60.2646011  44.7490548  25.3800577  58.6538167  45.9401753
  24.9831672  58.0012250  46.7178007  25.9688126  58.0642919  45.2373750
  26.3358779  59.5972886  46.6167384  27.4976721  60.0974999  46.0460663
  28.0645916  60.9304362  46.9289935  28.9972574  61.4267995  46.6609319
  27.3255398  60.9939706  48.0408584  27.5075849  61.5373285  48.8725564
  26.2277650  60.1603884  47.8571352  25.4809028  60.0611784  48.6448252
  23.6053878  58.5953992  44.1005368  24.3472779  58.0236639  43.2928984
  22.2712874  58.5379231  43.9681028  21.6751890  58.8383377  44.7260718
  21.6388679  57.9730501  42.7645655  22.1836698  57.0837192  42.4477362
  20.1687562  57.5928133  42.9919252  19.7948280  57.1268735  42.0802355
  19.9947445  56.6275499  44.1658436  20.3680506  57.0930033  45.0780362
  18.9381965  56.3883954  44.2867185  20.5538219  55.7124833  43.9704308
  19.3753439  58.7252073  43.2448734  18.4648153  58.4537637  43.3821917
  21.7572918  58.9576432  41.6018432  21.7264336  60.1734392  41.8080421
  21.8497703  58.4490642  40.3720794  21.9048786  57.4486064  40.2450102
  21.9170813  59.3051302  39.1842721  22.8072659  59.9326377  39.2279196
  21.9852311  58.4424387  37.9108790  21.0510446  57.8919886  37.7995262
  22.1303106  59.0896429  37.0459057  23.0642840  57.5276769  38.0024575
  23.0998716  56.9939832  37.2052723  20.7242754  60.2602601  39.0745096
  20.8928778  61.4296448  38.7584485  19.5233297  59.7762596  39.4271878
  19.4562291  58.8013629  39.6824786  18.3008939  60.5848867  39.4445945
  18.1363318  61.0520246  38.4736153  17.1087296  59.6749621  39.7585222
  17.3250622  59.1539128  40.6911567  16.2326443  60.3095446  39.8922368
  16.8320886  58.6477093  38.6508785  16.4840909  59.1649956  37.7567794
  17.7925762  58.1749352  38.4458236  15.8113009  57.5771614  39.0511093
  15.3972710  56.8129400  38.1479571  15.4764007  57.4836504  40.2547523
  18.3530928  61.7104624  40.4862506  17.9535369  62.8388983  40.2093851
  18.8857254  61.4298368  41.6742766  19.1383847  60.4767750  41.8932194
  19.0416283  62.4414937  42.7113506  18.0910382  62.9574986  42.8463194
  19.4274673  61.7710068  44.0352255  20.3819321  61.2577112  43.9185013
  19.5155811  62.5281189  44.8144030  18.6595635  61.0498790  44.3152213
  20.0694957  63.5056405  42.2926563  19.7809900  64.6928179  42.3993677
  21.2179922  63.0854531  41.7699363  21.3969320  62.0915589  41.7539935
  22.2780705  63.9932649  41.3003717  22.5700755  64.6824198  42.0927717
  23.5131150  63.1974670  40.8305686  23.1883972  62.4284446  40.1296668
  24.5357670  64.1221107  40.1408565  24.8613201  64.8911694  40.8413309
  25.3968839  63.5363746  39.8191554  24.0732070  64.5935025  39.2737191
  24.1760193  62.4778608  42.0251062  24.6561914  63.2449251  42.6326815
  23.3762980  62.0088715  42.5983377  25.2130240  61.4150858  41.6288998
  26.0133511  61.8834399  41.0559942  25.6288061  60.9595831  42.5276444
  24.7334577  60.6473870  41.0216481  21.7358475  64.9109479  40.2002089
  21.8978019  66.1268543  40.2952896  21.0459687  64.3601324  39.2026566
  20.9539816  63.3550587  39.1643869  20.4866421  65.1487072  38.1081990
  21.2549417  65.7873333  37.6723415  19.9501541  64.2051554  37.0125017
  20.6901299  63.4205217  36.8547517  19.0233968  63.7619080  37.3768539
  19.6825311  64.9323472  35.6826675  19.2895576  64.2166802  34.9605226
  18.9268719  65.6898036  35.8908461  20.9413476  65.6083581  35.1029827
  20.8202179  66.6539258  34.4494639  22.0640685  65.1004112  35.3311068
  19.3986369  66.1121729  38.6048524  19.4057871  67.2935829  38.2632265
  18.5148179  65.6455616  39.4942561  18.5107622  64.6592753  39.7117927
  17.5058835  66.5019893  40.1283128  16.8668219  66.9555200  39.3706788
  16.6358518  65.6649043  41.0630505  16.1449779  64.8816556  40.4854145
  17.2683697  65.2108508  41.8258457  15.6563052  66.4768264  41.6845930
  15.1175454  65.9379160  42.2684708  18.1424822  67.6624557  40.8940784
  17.7207257  68.8109444  40.7445158  19.1809895  67.3998097  41.6864272
  19.4612601  66.4389661  41.8218060  19.8882684  68.4385861  42.4300596
  19.1756532  69.0350173  42.9997512  20.8947406  67.8103886  43.4070481
  21.5999721  67.2546886  42.7890309  21.4085335  68.6464819  43.8814582
  20.3289571  66.8964298  44.4723173  18.9799743  66.9671081  44.8766327
  18.3271957  67.7128616  44.4229463  18.4718978  66.0866917  45.8566446
  17.4272857  66.1354968  46.1640620  19.3307021  65.1462958  46.4404776
  18.8362970  64.2858016  47.3926112  17.9031212  64.4215145  47.5725130
  20.6825818  65.0660040  46.0635699  21.3458161  64.3338275  46.5241547
  21.1762907  65.9416343  45.0827411  22.2232024  65.8904711  44.7836452
  20.5899390  69.4230233  41.4986168  20.4953126  70.6356515  41.7150419
  21.2169101  68.9312496  40.4343955  21.2892353  67.9290304  40.3322917
  21.8921363  69.7763140  39.4564239  22.5890339  70.4507074  39.9540447
  22.6730186  68.8984594  38.4858451  23.2702472  68.1976238  39.0691517
  21.9510479  68.3465547  37.8839651  23.5814970  69.6999834  37.5753616
  23.4086422  69.6715548  36.1768353  22.6141728  69.0661167  35.7405297
  24.2528882  70.4171696  35.3501453  24.1265222  70.3803576  34.2681201
  25.2767062  71.2060499  35.9139976  26.0994065  71.9529008  35.1186964
  25.8948708  71.8696290  34.1844424  25.4586429  71.2474197  37.3058872
  26.2457073  71.8575665  37.7490023  24.6084427  70.4875419  38.1311226
  24.7410315  70.5044663  39.2128960  20.9107083  70.7035482  38.7315620
  21.1206900  71.9165892  38.6952685  19.7720648  70.1886831  38.2745730
  19.6260185  69.1907497  38.3284131  18.7395182  71.0078697  37.6373275
  19.1696012  71.5918940  36.8236670  17.6380883  70.0933044  37.0595581
  17.2883994  69.4437861  37.8620186  16.8185127  70.7286904  36.7238788
  18.1350569  69.2332260  35.8833947  18.9103952  68.5565327  36.2426126
  17.2862447  68.6529930  35.5215250  18.6995439  70.0497794  34.7211951
  18.2915993  71.1786505  34.4730253  19.6572576  69.5129592  33.9980737
  20.0502654  70.0283232  33.2234472  19.9955804  68.5876697  34.2205112
  18.1230307  72.0286474  38.5932297  17.8696392  73.1773721  38.2182760
  17.9203036  71.6605766  39.8532661  18.0488471  70.6913965  40.1067731
  17.4430980  72.5951903  40.8865977  16.5501507  73.1133911  40.5370090
  17.0956327  71.8310758  42.1662609  17.9363459  71.1818756  42.4108825
  16.9539775  72.5581095  42.9659208  15.8195318  70.9821402  42.0126387
  14.9841101  71.6443193  41.7852839  15.9620723  70.2820982  41.1893978
  15.5189771  70.2041008  43.2980023  14.6708419  69.5364735  43.1462148
  16.3896014  69.6218230  43.5997728  15.1900786  71.1427811  44.3677271
  15.2808823  72.1032066  44.0686670  14.8124891  70.9030501  45.6082931
  14.6889716  69.6983116  46.1146473  14.8885580  68.8904000  45.5423325
  14.3949197  69.5848621  47.0742109  14.5469701  71.9099289  46.3658448
  14.6315235  72.8481789  46.0016502  14.2554215  71.7566363  47.3206221
  18.4734490  73.6922965  41.1712671  18.0736761  74.8467945  41.3196517
  19.7470386  73.3516253  41.2081700  19.9703956  72.3667212  41.2213936
  20.8365723  74.3081359  41.3381001  20.6851813  74.9287959  42.2212541
  22.1721517  73.5669923  41.4827998  22.2545431  73.0896603  42.4592552
  22.1326587  72.8021208  40.7072278  23.3743002  74.4555099  41.2533472
  24.0771764  74.4187173  40.0273499  23.7989210  73.6844914  39.2713171
  25.1219663  75.3145198  39.7807451  25.6760732  75.2688722  38.8432038
  25.4704249  76.2645481  40.7583364  26.4669720  77.1767090  40.5103093
  26.8587144  77.0768056  39.6395873  24.7894154  76.3048503  41.9917182
  25.0694983  77.0299931  42.7558006  23.7422297  75.4005860  42.2321056
  23.2071591  75.4262041  43.1813912  20.8546848  75.3051037  40.1766023
  20.7529834  76.5067319  40.4129760  20.8739290  74.8078715  38.9332380
  20.9218456  73.8058415  38.8160235  20.8806089  75.6503347  37.7310141
  21.7712035  76.2786470  37.7182006  20.8856347  74.7645575  36.4728331
  20.0527174  74.0685509  36.5724469  20.7009489  75.4334644  35.6322650
  22.1834556  73.9781488  36.2259740  22.3985437  73.3383620  37.0818424
  22.0010323  73.1142102  34.9771690  21.7863563  73.7533738  34.1207329
  22.9142025  72.5496698  34.7887148  21.1723423  72.4229993  35.1307951
  23.3944833  74.8968929  35.9937799  23.5462902  75.5272201  36.8699886
  24.2842023  74.2903566  35.8246198  23.2126033  75.5252715  35.1219089
  19.6766185  76.6022120  37.7023647  19.8351105  77.8100050  37.5508745
  18.4799037  76.0891507  37.9562523  18.3870590  75.0905368  38.0756235
  17.2684597  76.9116390  38.0161801  17.1348324  77.4747616  37.0925266
  16.0642200  75.9809942  38.2011588  16.3713241  75.2420022  38.9412109
  15.1909513  76.5204650  38.5678645  15.6870278  75.2606255  36.9269030
  15.5878855  75.8401410  35.8714516  15.3919836  73.9836983  36.9973565
  15.1369029  73.4805015  36.1596055  15.4213893  73.5101865  37.8889969
  17.3085637  77.9607333  39.1347407  16.7459936  79.0448559  38.9903279
  17.9426482  77.6323084  40.2593024  18.3321828  76.7035433  40.3351809
  18.1035011  78.5430700  41.3854643  17.1238577  78.9433210  41.6466101
  18.5018762  77.9795799  42.2291914  19.0456403  79.7012438  41.0728812
  18.6647606  80.8622682  41.2559279  20.2312785  79.4167822  40.5364134
  20.4980324  78.4470458  40.4439313  21.2267344  80.4459610  40.2144699
  21.2732188  81.2047889  40.9955709  22.6433840  79.8815324  39.9912451
  23.3103906  80.6978506  39.7140699  23.1602027  79.2116203  41.2641887
  22.4939175  78.3948436  41.5417507  24.1616233  78.8189779  41.0878672
  23.1941464  79.9426302  42.0720092  22.7452833  78.8946741  38.8223678
  22.4488493  79.3924029  37.8990613  23.7730950  78.5433712  38.7313246
  22.0864506  78.0456376  39.0045146  20.8048601  81.3313012  39.0453643
  21.0712636  82.5269740  39.0659735  20.0637211  80.7881472  38.0683957
  19.9578700  79.7841470  38.0387557  19.4647024  81.5874084  36.9814439
  20.2444066  82.1696766  36.4903998  18.7999571  80.6765309  35.9363771
  18.1945791  79.9477155  36.4753064  17.9178023  81.4350583  34.9386932
  18.5226189  82.1637883  34.3990170  17.4807620  80.7308301  34.2307674
  17.1217445  81.9507908  35.4757347  19.8591981  79.9441208  35.1109336
  20.4763038  79.3336826  35.7702118  19.3699249  79.3042461  34.3765824
  20.4872476  80.6717844  34.5969683  18.4673816  82.6114228  37.5347738
  18.4184920  83.7435086  37.0550911  17.6931514  82.2544056  38.5612227
  17.7186110  81.2987264  38.8869963  16.7544144  83.1860822  39.2054243
  16.2075793  83.7469114  38.4474394  15.7440394  82.4096885  40.0666072
  16.2991785  81.6971571  40.6767045  15.2355589  83.1234821  40.7147170
  14.7168132  81.6660305  39.2279653  14.1005447  82.3835221  38.6861907
  15.2280058  81.0170237  38.5169278  13.8267617  80.8180366  40.1453766
  14.4531836  80.1324880  40.7160935  13.2911451  81.4755417  40.8301403
  12.8225834  80.0195586  39.3168128  12.2024719  80.7191687  38.7563595
  13.3736014  79.3859423  38.6218246  11.9586992  79.1737322  40.1787302
  11.4477018  79.7607001  40.8225083  11.3077124  78.6600775  39.6021237
  12.5330782  78.5250975  40.6978264  17.4703602  84.2316456  40.0628979
  17.0915116  85.3939897  40.0445714  18.4674263  83.8058486  40.8372080
  18.6549123  82.8140520  40.8730922  19.2512677  84.6890508  41.6929466
  19.4828460  85.6177751  41.1714661  18.4348958  85.0243981  42.9577996
  17.4692039  85.4344522  42.6621750  18.2807325  84.1104422  43.5314007
  19.1443535  86.0399091  43.8422687  20.2180896  86.5299653  43.5528840
  18.5447892  86.3851931  44.9595523  18.9802213  87.0561394  45.5762610
  17.6513486  85.9780100  45.1963364  20.6105833  84.0571811  42.0432718
  20.7377660  83.3708516  43.0550827  21.6267953  84.3467825  41.2469356
  21.4645260  84.9577338  40.4592132  22.9784353  83.8234673  41.4524782
  22.8953133  82.7387093  41.5194858  23.5622682  84.0888532  40.5711106
  23.6977299  84.3484734  42.7057482  24.7211312  83.7899605  43.0978988
  23.1688694  85.3979720  43.3575130  22.4039332  85.8940498  42.9229112
  23.7010053  85.9119768  44.6164906  24.7743742  85.7227387  44.6294250
  23.4708108  87.4224906  44.6579459  22.4002923  87.6276245  44.6547285
  23.9163048  87.8337072  45.5637805  23.9314465  87.8848352  43.7849331
  23.1092384  85.2189280  45.8556150  23.6676916  85.3225741  46.9504339
  21.9879710  84.5118317  45.7137058  21.4920413  84.5535494  44.8348356
  21.4017882  83.7411919  46.8011910  21.4019612  84.3413264  47.7111018
  19.9477002  83.3789917  46.4513055  19.9318073  82.7702696  45.5472564
  19.5043435  82.8182033  47.2741370  19.3755064  84.2915782  46.2843345
  22.2504876  82.4874213  47.0961516  22.8664258  81.9455359  46.1841575
  22.2487006  81.9719327  48.3446104  21.6083886  82.5446082  49.5171365
  20.5499113  82.6796762  49.2946895  22.0644351  83.5148409  49.7140354
  21.8484379  81.5431682  50.6556891  21.0243792  80.8342409  50.7359911
  21.9799680  82.0560420  51.6084544  23.1400554  80.8505686  50.2266120
  23.2248297  79.8515054  50.6541458  24.0328717  81.4264309  50.4702534
  22.9788718  80.7543288  48.7055033  23.9692688  80.8029261  48.2528993
  22.2551154  79.4844339  48.2200410  21.9502767  78.5900479  48.9966413
  21.9772375  79.4062882  46.9180670  22.3630318  80.1370174  46.3372944
  21.1371979  78.3798319  46.2815225  20.1044948  78.4475223  46.6236357
  21.1599747  78.5423528  44.7548925  22.1991981  78.4914718  44.4300461
  20.3466516  77.4677155  44.0311251  19.3071503  77.5182795  44.3551333
  20.3998340  77.6341391  42.9552184  20.7526299  76.4839264  44.2665868
  20.6170867  79.9151435  44.3296872  21.2302657  80.7012743  44.7702686
  20.6470166  79.9976378  43.2432257  19.5882403  80.0219251  44.6734509
  21.5864122  76.9633729  46.6404533  20.7630394  76.1101161  46.9680415
  22.8928004  76.6920608  46.5889788  23.5262395  77.4245547  46.3020870
  23.4375600  75.3635241  46.8297116  22.8422775  74.6003096  46.3284714
  24.8667004  75.3245256  46.2610029  24.8445782  75.7623720  45.2630548
  25.4793376  75.9443678  46.9156565  25.4641529  73.9139059  46.1868709
  25.5209312  73.5138146  47.1991969  24.6238052  72.9837364  45.3196821
  24.5669514  73.3829559  44.3070171  25.0832092  71.9955904  45.2948608
  23.6194714  72.9065590  45.7361647  26.8597286  73.9993732  45.5649579
  27.4943032  74.6362937  46.1811939  27.2941560  73.0013457  45.5073782
  26.7862021  74.4214451  44.5626865  23.3805091  74.9769151  48.3097496
  23.0873927  73.8314723  48.6360588  23.6090893  75.9401706  49.2090582
  23.9451380  76.8311482  48.8724139  23.4661618  75.7547550  50.6449102
  24.0212707  74.8778979  50.9781893  24.0339587  76.9993486  51.3603278
  25.0916321  77.0577808  51.1034003  23.5119427  77.8622745  50.9468568
  23.8780802  76.9910724  52.8907678  22.8154652  76.9189579  53.1226077
  24.6220098  75.8238721  53.5418954  25.6848295  75.8955667  53.3108692
  24.4822749  75.8606752  54.6222751  24.2297981  74.8824520  53.1571894
  24.4406546  78.2871465  53.4747644  23.8984092  79.1377697  53.0618364
  24.3280536  78.2767250  54.5588832  25.4971639  78.3723072  53.2205309
  22.0034018  75.4985739  51.0309586  21.7250045  74.5632295  51.7881355
  21.0782191  76.2743047  50.4848261  21.3815014  77.0372710  49.8966070
  19.6463929  76.1233228  50.7411933  19.4582392  76.1281660  51.8148198
  18.8676007  77.2832196  50.1008941  19.2085590  77.3405619  49.0671831
  17.8041461  77.0448515  50.1194732  19.1004963  78.6307909  50.7904129
  19.5889614  78.6504452  51.9544566  18.7578435  79.6684909  50.1679841
  19.1416692  74.7710256  50.2207518  18.4252426  74.0689695  50.9385848
  19.5879951  74.3508533  49.0399091  20.1230129  74.9919896  48.4717546
  19.2761941  73.0291688  48.4896735  18.1974982  72.8900047  48.4179268
  19.8808310  72.9169559  47.0805730  19.4119160  73.6880691  46.4693427
  20.9470967  73.1242707  47.1711163  19.6804289  71.5446073  46.4164364
  20.1239594  70.7871723  47.0627131  18.2017007  71.2212662  46.1926811
  17.7575667  71.9780635  45.5460733  18.1104980  70.2426082  45.7215004
  17.6821448  71.2124634  47.1508484  20.3807443  71.5182701  45.0530304
  21.4469690  71.6999969  45.1880849  20.2349221  70.5433586  44.5878587
  19.9590000  72.2927018  44.4123384  19.7754635  71.9049435  49.4094803
  19.0251839  70.9737912  49.6839963  21.0139022  71.9860375  49.8937183
  21.6148828  72.7378324  49.5875713  21.5663279  70.9836978  50.8011840
  21.5300491  70.0069725  50.3187000  23.0276444  71.3320070  51.0906311
  23.0796565  72.3035309  51.5820945  23.4606710  70.5724795  51.7415583
  23.5852341  71.3685254  50.1547576  20.7550812  70.8745453  52.0951510
  20.4524104  69.7755432  52.5414309  20.3561720  72.0109741  52.6708514
  20.6764321  72.8850247  52.2789732  19.5328331  72.0530732  53.8752486
  19.9618581  71.4250508  54.6560332  19.4759685  73.5006149  54.3856392
  19.2113432  74.1055381  53.5183787  18.7092915  73.6109586  55.1525360
  20.7974267  74.0037139  54.9438869  21.6222522  73.2822031  55.4819186
  21.0174035  75.3001012  54.8922800  21.8825572  75.6771323  55.2520807
  20.3200646  75.9120499  54.4931085  18.1206123  71.5038180  53.6303134
  17.6019832  70.7889107  54.4750243  17.5159290  71.8008469  52.4663835
  17.9933794  72.4006423  51.8088228  16.1671455  71.3361933  52.1304357
  15.4650577  71.5806999  52.9275484  15.7131847  72.0396965  50.8441687
  15.9012521  73.1073851  50.9571781  16.3084168  71.6519571  50.0174542
  14.2200222  71.8103680  50.5523893  14.1300440  70.7255799  50.6093078
  13.5537635  72.2685408  51.2833313  13.8370602  72.2797272  49.1505120
  12.9754559  71.6217744  48.5129124  14.4591805  73.2118319  48.6027319
  16.0924259  69.8126413  51.9607680  15.1159094  69.1899800  52.3687159
  17.1356434  69.1984165  51.3943235  17.8705687  69.7600499  50.9886734
  17.1689610  67.7376414  51.1760757  16.1807397  67.2887741  51.2762555
  17.7421561  67.3614395  49.8002950  17.6139930  66.2888630  49.6545108
  17.0351607  68.1183841  48.6703625  17.1632847  69.1910919  48.8152185
  17.4661271  67.8276138  47.7123328  15.9726039  67.8754807  48.6788929
  19.2493536  67.5808590  49.6890535  19.7616598  66.9717610  50.4337978
  19.5860932  67.2949650  48.6925743  19.4776042  68.6326862  49.8612802
  17.8521006  66.9724939  52.3170360  18.0320453  65.7607680  52.2045050
  18.2192470  67.6647871  53.4024114  18.1613981  68.6691875  53.3133455
  18.8718289  67.1096645  54.5896943  19.2459737  67.9104512  55.2275466
  17.8529628  66.2829791  55.3868487  16.8941265  66.8013296  55.3801428
  17.7556937  65.3333116  54.8607589  18.2793371  66.0247371  56.8240376
  19.1091617  66.7907947  57.3614953  17.7376210  65.0580455  57.4113894
  20.2026688  66.3982661  54.2627652  20.4520895  65.2456191  54.6436222
  21.0679750  67.0970185  53.5165076  20.7464632  67.9715493  53.1267315
  22.4045070  66.6266226  53.1550040  22.6509966  65.7259867  53.7173180
  22.4501712  66.2979787  51.6601124  21.5055777  65.8105599  51.4187305
  22.5194972  67.2423419  51.1202308  23.6023628  65.3972616  51.2534074
  24.4214277  65.7224477  50.1561797  24.2335867  66.6419391  49.6017874
  25.4704331  64.8764825  49.7745508  26.0969730  65.1275525  48.9186809
  25.7134877  63.6921744  50.5042890  26.7321862  62.8516457  50.1500999
  27.2250677  63.1606004  49.3864151  24.9110467  63.3653200  51.6041366
  25.1031272  62.4565031  52.1744500  23.8585324  64.2115505  51.9700295
  23.2244108  63.9568181  52.8192063  23.4825444  67.6362069  53.5519940
  23.2163414  68.8299087  53.7007414  24.7206555  67.1811339  53.7373574
  24.9183620  66.1953187  53.6415465  25.8048964  68.0672447  54.1427033
  25.4946251  68.6461612  55.0125806  27.0334725  67.2399674  54.5195243
  27.3615354  66.6615815  53.6558435  27.8365469  67.9050552  54.8370618
  26.7798006  66.5624129  55.3347970  26.1367731  69.0677102  53.0292453
  26.4143590  68.6375195  51.9100098  26.1947058  70.3815458  53.3199924
  25.7809348  71.0071418  54.5731697  26.5405357  70.7914685  55.3245629
  24.8337714  70.5609394  54.8762934  25.6539684  72.4960755  54.2806141
  25.9319966  73.0905118  55.1509272  24.6378826  72.7491753  53.9779402
  26.6319544  72.7028898  53.1298121  27.6577700  72.8424292  53.4708839
  26.3386809  73.5477802  52.5067145  26.5216412  71.4013449  52.3307391
  25.6776880  71.4648733  51.6438581  27.8048543  71.1179477  51.5384158
  27.7973628  71.1911937  50.3118989  28.8789577  70.7064670  52.2021172
  28.8400641  70.6372964  53.2089946  30.1423073  70.3884218  51.5324763
  30.4281348  71.2054598  50.8700182  31.2509198  70.1865782  52.5656847
  30.9920887  69.3412349  53.2032585  32.1859366  69.9764356  52.0463739
  31.4031100  71.3417932  53.3570205  32.1017532  71.1995317  53.9998729
  30.0574302  69.1362704  50.6454415  30.7298939  69.0625261  49.6175216
  29.2289366  68.1537672  51.0087248  28.7819154  68.2079421  51.9127915
  29.0072448  66.9595446  50.1968965  29.9498969  66.6334532  49.7573846
  28.4438584  65.8148976  51.0573091  27.5002448  66.1788732  51.4637747
  28.2504294  64.9824949  50.3807066  29.3486382  65.3405122  52.2080172
  29.5170155  66.1648651  52.9009763  28.6711760  64.1798551  52.9492142
  28.5028825  63.3548918  52.2569629  29.3128213  63.8445741  53.7640631
  27.7159953  64.5146117  53.3537734  30.7153963  64.8591125  51.7282499
  31.2287329  65.6730549  51.2163098  31.3087958  64.5372639  52.5840489
  30.5860372  64.0227673  51.0413061  28.0918999  67.2623350  49.0058706
  28.3509108  66.7685169  47.9128367  27.0878460  68.1223951  49.1814734
  26.8462068  68.3852287  50.1262635  26.2755907  68.6562193  48.0811662
  25.8373160  67.8378401  47.5099657  25.1426881  69.5271487  48.6377465
  24.5538119  68.9172842  49.3228665  25.5919930  70.3561031  49.1846101
  24.2340219  70.0767794  47.5344202  23.5085878  70.7301621  48.0191235
  24.8656050  70.6659751  46.8695493  23.3488886  68.8181977  46.5598368
  22.0840718  68.3515580  47.7578918  21.4831026  69.2248850  48.0113381
  21.4426197  67.5818864  47.3286537  22.5610050  67.9654830  48.6587703
  27.1420740  69.4511620  47.0970682  27.0708294  69.2221090  45.8947975
  28.0178890  70.3198975  47.5951162  27.9997623  70.5088866  48.5871111
  28.9579589  71.0687583  46.7643984  28.4030562  71.6920932  46.0632310
  29.7951316  71.9796060  47.6745475  30.3635751  71.3693638  48.3763854
  30.4820454  72.5688221  47.0670329  29.1347605  72.6479787  48.2270757
  29.8440320  70.1433529  45.9312308  30.0509818  70.3896181  44.7462383
  30.3056274  69.0273415  46.5204786  30.1659482  68.9118473  47.5140833
  31.0822126  68.0087049  45.8039530  31.9353422  68.4654546  45.3023069
  31.5992549  66.9722324  46.8004578  32.0662377  67.4977118  47.6334630
  30.7516066  66.3928484  47.1663905  32.6220341  66.0288361  46.1533325
  32.1342921  65.4701716  45.3545193  33.4372482  66.6205040  45.7368506
  33.1811006  65.0495686  47.1944304  33.3779839  65.5863926  48.1224153
  32.4479501  64.2641800  47.3781543  34.4270150  64.4306821  46.7370052
  35.2654145  64.7830525  47.1763465  34.5420905  63.4568972  45.8424844
  33.5156003  62.8115930  45.3866309  32.5893389  63.0463113  45.7138116
  33.6463310  62.0767626  44.7061653  35.7132614  63.1437633  45.3734524
  36.5314015  63.6431160  45.6918762  35.7996099  62.4025810  44.6927972
  30.2794576  67.3535695  44.6840311  30.8083468  67.2162266  43.5914771
  29.0226561  66.9638197  44.9392878  28.6653683  67.0773251  45.8771370
  28.1469702  66.3556541  43.9295834  28.6118851  65.4546635  43.5293720
  26.7938737  65.9739959  44.5567323  26.4580340  66.8513708  45.1094747
  26.1118866  65.7843993  43.7278495  26.8129214  64.7539066  45.4941833
  27.5403103  64.9141042  46.2900118  25.4239614  64.5687760  46.1037903
  24.6960541  64.4080548  45.3085428  25.4308001  63.7055426  46.7692842
  25.1528722  65.4604898  46.6689960  27.1949368  63.4741120  44.7530808
  28.1886264  63.5874448  44.3196804  27.1966971  62.6364863  45.4505630
  26.4724874  63.2838230  43.9593831  27.8985500  67.3009635  42.7542032
  28.0353504  66.8966542  41.5993085  27.5656228  68.5579719  43.0200666
  27.4219031  68.8161223  43.9858836  27.2778686  69.5515487  41.9868345
  26.6596907  69.1460518  41.1858805  26.5806838  70.7787986  42.6014727
  27.1865063  71.1350831  43.4346239  26.4052317  71.9079604  41.5775122
  25.7990826  71.5525459  40.7442269  25.9094199  72.7551118  42.0514382
  27.3823752  72.2195101  41.2084232  25.2148191  70.4044619  43.2242205
  25.4311556  69.7013090  44.0285060  24.8116677  71.3251912  43.6459145
  24.1862081  69.7868995  42.2685401  24.5884928  68.8658224  41.8467773
  23.2691329  69.5656946  42.8145628  23.9690065  70.4897044  41.4641841
  28.5324310  69.9213204  41.2086038  28.4774316  70.0116105  39.9833084
  29.6801636  70.0705436  41.8766482  29.6596989  70.0638796  42.8864185
  30.9519697  70.3265549  41.2131442  30.8770119  71.2028890  40.5693126
  32.0284030  70.5890675  42.2755893  31.7189189  71.4794713  42.8228551
  32.0441730  69.7345839  42.9521313  33.4399882  70.8089757  41.6922810
  33.7192821  69.9131948  41.1375989  33.5034204  72.0232408  40.7644283
  33.2246843  72.9195361  41.3185582  34.5172874  72.1349172  40.3801069
  32.8135576  71.8818473  39.9324442  34.4340952  71.0158763  42.8306120
  34.4399074  70.1354086  43.4731401  35.4313672  71.1712579  42.4190220
  34.1423754  71.8890161  43.4142432  31.3351335  69.1702901  40.2838555
  31.7000378  69.4083327  39.1440825  31.2241155  67.9310382  40.7419751
  30.9959453  67.8011760  41.7172563  31.5205374  66.7479232  39.9360513
  32.5269615  66.8090338  39.5219558  31.4318629  65.4987025  40.8308142
  32.0637675  65.6866189  41.6988483  30.3932605  65.4121119  41.1500432
  31.8702855  64.1890722  40.1513644  31.1410907  63.8510101  39.4150969
  32.7972236  64.4601468  39.6459899  32.1491765  63.0462139  41.1660090
  32.7924836  62.0516625  40.7685035  31.8222729  63.1698100  42.3708924
  30.6062605  66.6670419  38.7057839  31.0936647  66.4584865  37.5910311
  29.3016142  66.9260088  38.8711775  28.9516945  67.0422310  39.8114689
  28.3426972  66.9461074  37.7670817  28.4392824  66.0465551  37.1591540
  26.9204604  66.9980601  38.3441288  26.7955146  66.1175343  38.9743368
  26.8539487  67.8961463  38.9582276  25.8156738  67.0246953  37.2773734
  24.8590419  67.1008696  37.7942427  25.9689740  67.9133066  36.6650245
  25.8142521  65.7798768  36.3803680  26.7976612  65.6550259  35.9271378
  25.5754808  64.8996778  36.9773080  24.8205178  65.9073954  35.3155876
  23.9253136  65.4844201  35.5150885  24.9883992  66.5138780  34.1456322
  26.1382615  66.9979384  33.7594804  26.9447407  66.9171667  34.3621139
  26.2156577  67.4507991  32.8600213  23.9740231  66.6357674  33.3422255
  23.0723169  66.2702830  33.6132368  24.0922381  67.0953956  32.4506730
  28.5919707  68.0810834  36.7748452  28.4664900  67.8639931  35.5762275
  28.9518626  69.2649458  37.2634827  28.9325085  69.3868081  38.2659169
  29.3116772  70.4150244  36.4310165  28.5111489  70.6412812  35.7267002
  29.5323806  71.6352548  37.3294221  28.6043277  71.9447121  37.8101022
  30.2679196  71.3788507  38.0918783  30.0664028  72.8441332  36.6042466
  31.4523414  73.0468162  36.4811248  32.1402630  72.3387375  36.9431727
  31.9517659  74.1481686  35.7715115  33.0267623  74.2997188  35.6739614
  31.0581515  75.0588148  35.1846446  31.4441738  75.9135416  34.6291910
  29.6761000  74.8721427  35.3108553  28.9829017  75.5850494  34.8643798
  29.1858196  73.7654649  36.0132558  28.1107521  73.6114947  36.1061147
  30.5575943  70.1102544  35.5850071  30.5435067  70.3172121  34.3778476
  31.6047249  69.5636529  36.1853380  31.5728138  69.4229551  37.1849805
  32.8414463  69.2361741  35.4786438  33.1866257  70.0956552  34.9039764
  33.9240377  68.8576348  36.4892570  33.5071370  68.0520062  37.0936207
  34.7756531  68.4821971  35.9218967  34.3855659  70.0034874  37.4096019
  33.5201332  70.4565178  37.8932242  35.3261839  69.4443711  38.4717081
  36.1921439  68.9915547  37.9888319  35.6563051  70.2509453  39.1263522
  34.8033959  68.6903972  39.0601947  35.1143088  71.1119255  36.6563439
  34.4506449  71.5374975  35.9036566  35.4152111  71.8909051  37.3568794
  35.9985176  70.7005103  36.1695060  32.6334192  68.1288581  34.4400148
  33.2007740  68.1979489  33.3588853  31.7560882  67.1481767  34.7089817
  31.3393910  67.0965164  35.6275643  31.3866858  66.1265897  33.7171880
  32.2753558  65.6007536  33.3681019  30.4376075  65.1115508  34.3561791
  29.6877913  65.6656103  34.9208851  29.9511597  64.5581798  33.5529051
  31.1555908  64.1334254  35.2862358  31.7887637  63.4784453  34.6877427
  31.7742990  64.6977652  35.9839627  30.1749344  63.2676377  36.0897168
  28.9551078  63.3407959  35.9657771  30.6800575  62.4172626  36.9436922
  30.0662437  61.8304643  37.4905026  31.6819279  62.3507654  37.0529403
  30.6963108  66.7139308  32.4745638  30.7518862  66.1006503  31.4153484
  30.0098044  67.8426176  32.6170566  29.9190931  68.2451321  33.5389312
  29.3168997  68.4952681  31.5026871  28.9681855  67.7624055  30.7750815
  28.1024858  69.2364385  32.0716981  27.5291224  68.5172642  32.6566271
  28.4800052  70.0198418  32.7288575  27.2005882  69.8586047  31.0021473
  27.7011158  70.6750978  30.4816551  27.0161208  69.0422127  30.3038816
  25.8648789  70.3570890  31.5702213  25.0712217  70.9407995  30.8065957
  25.5739988  70.0846545  32.7565843  30.2259430  69.4429629  30.7137595
  30.0774481  69.5741363  29.4978002  31.1768736  70.0832224  31.3908782
  31.2751645  69.8832034  32.3759825  32.0027648  71.1387099  30.8134651
  31.6091015  71.4537189  29.8470813  31.9870904  72.3393870  31.7629802
  32.2101639  72.0152806  32.7794901  32.7122242  73.0926575  31.4549792
  30.6514495  73.0241671  31.8137111  30.1081812  73.7864659  30.8025464
  28.9054482  74.2161796  31.1926291  28.3152861  74.8288717  30.5111484
  28.6431142  73.7773051  32.4346416  27.8210401  73.9493532  32.9956171
  29.7381345  73.0151899  32.8347166  29.7444028  72.5441755  33.8176751
  33.4343219  70.7170112  30.4613336  34.0999896  71.4328030  29.7086601
  33.9241729  69.5686155  30.9747206  33.3854027  69.0947395  31.6855424
  35.2314807  69.0316547  30.6272546  35.7640849  69.7622730  30.0184616
  36.0812010  68.7165203  31.8745215  35.5394262  67.9799000  32.4677918
  37.0232814  68.2865426  31.5343688  36.3666120  69.9601190  32.7367766
  36.7094189  70.7431246  32.0603991  35.4262339  70.2639831  33.1966187
  37.4213720  69.7310286  33.8313569  37.7982828  70.7358140  34.4834929
  37.8702471  68.5836535  34.0336106  35.0982425  67.7871236  29.7259668
  34.2304062  66.9453061  29.9116532  36.0122040  67.6455575  28.7725653
  36.7233807  68.3548359  28.6664937  36.0321792  66.4973521  27.8574193
  35.0581367  66.3804468  27.3823680  37.0884380  66.7174643  26.7638668
  38.0397543  66.8927878  27.2662195  37.1484431  65.7961039  26.1845617
  36.7806645  67.8965798  25.8219836  35.7831356  67.7387119  25.4119658
  36.7907164  68.8154250  26.4082615  37.7892226  68.0110282  24.6783136
  37.4914238  68.7601628  23.7188251  38.8580612  67.3556676  24.7334553
  36.3639317  65.1829209  28.5705238  35.9253991  64.1054414  28.1684504
  37.1663330  65.2657106  29.6309289  37.5440986  66.1702101  29.8743894
  37.5865032  64.1060012  30.4139870  37.2007921  63.1936504  29.9590779
  39.1117324  63.9967854  30.5130661  39.3578218  63.2290430  31.2466272
  39.7315303  63.6298546  29.1642895  39.4862434  64.3974236  28.4302787
  40.8143109  63.5601471  29.2683380  39.3364934  62.6700499  28.8313910
  39.7041854  65.1846808  30.9458455  40.6560557  65.0690536  30.9924663
  36.9672128  64.1509035  31.8067915  36.9487961  65.2132010  32.4290871
  36.5000917  63.0004580  32.3423837  36.4107168  61.7005920  31.6989409
  37.4081579  61.2624254  31.6639884  36.0406414  61.8417091  30.6834463
  35.4436373  60.8914027  32.5649142  35.6955330  59.8312683  32.5372998
  34.4163916  61.0291497  32.2274331  35.6408704  61.4740214  33.9589560
  36.4865399  60.9865698  34.4440674  34.7613556  61.3954487  34.5980018
  35.9679650  62.9467099  33.6994726  35.0607288  63.5492451  33.7438796
  36.9863815  63.4829920  34.7108357  38.1444162  63.0569864  34.6983511
  36.5733296  64.3886998  35.5931251  35.2298504  64.9084155  35.7682680
  34.5291156  64.0738324  35.7449865  35.0109273  65.5890299  34.9455069
  35.2522522  65.6164385  37.1178719  34.9911793  64.9270767  37.9208166
  34.5607133  66.4589584  37.1238365  36.6956404  66.0956425  37.2421944
  36.9818814  66.1550231  38.2922606  36.8915518  67.0523790  36.7580729
  37.4908426  64.9862058  36.5478216  38.3280691  65.4266758  36.0064009
  38.0136333  63.9318307  37.5224071  37.2751540  63.1081239  38.0713975
  39.3146061  63.9759476  37.7832548  39.9274475  64.5674971  37.2404897
  39.9093782  63.0995871  38.7869860  39.5282761  62.0858459  38.6637413
  41.4369902  63.0705678  38.6399333  41.8317155  62.2215081  39.1979555
  41.6905468  62.9612117  37.5854901  42.0006113  64.2611628  39.1367629
  42.9550053  64.2287914  39.0383554  39.4760994  63.5205570  40.1939639
  39.2345070  64.6949614  40.4868741  39.4604302  62.5487190  41.1334267
  39.5832011  61.5845754  40.8587380  39.2051668  62.8427395  42.5525861
  38.2112656  63.2756290  42.6660159  39.2800734  61.5605820  43.3915063
  40.2237869  61.0651306  43.1634011  39.2653540  61.8465309  44.4432271
  38.1172609  60.6012684  43.1064139  37.1774449  61.1231890  43.2865401
  38.1650454  60.2897099  42.0629821  38.1978925  59.3634216  44.0147083
  39.1337449  58.8383522  43.8234455  38.1662702  59.6805353  45.0570798
  37.0269719  58.4321941  43.7321515  36.1089580  58.9775827  43.9510172
  37.0538053  58.1774132  42.6726866  37.0680166  57.1842908  44.5436123
  37.0427265  57.4201371  45.5253642  36.2707703  56.6078184  44.3151875
  37.9183907  56.6785592  44.3406383  40.1717590  63.8817020  43.1204500
  39.7866728  64.6461287  43.9983165  41.4127690  63.9202709  42.6444411
  41.6999249  63.2014038  41.9956954  42.4094155  64.8979092  43.0821740
  42.4096135  64.9486437  44.1709922  43.8151215  64.5179029  42.6099198
  44.4951828  65.3318887  42.8610032  44.1225495  63.6133478  43.1346751
  43.8498424  64.2897340  41.2243991  44.7425088  64.0542541  40.9611582
  42.0658802  66.3204768  42.6294954  42.1852834  67.2384692  43.4385065
  41.5784732  66.4965444  41.3871715  41.5819581  65.7047945  40.7600995
  41.1352678  67.7959080  40.8655461  41.9005644  68.5534727  41.0344129
  40.8291528  67.7013587  39.3532709  40.2083479  66.8228300  39.1775183
  40.0939745  68.9545136  38.8574631  40.7143970  69.8334618  39.0324678
  39.8919528  68.8596073  37.7905607  39.1528368  69.0615105  39.3968245
  42.1373966  67.5167581  38.5677074  42.6623678  68.4717520  38.5899007
  42.7258916  66.7668662  39.0963238  41.9383229  67.0769859  37.1121718
  41.3502650  67.8266578  36.5827571  42.9092127  66.9694949  36.6285211
  41.4137864  66.1217725  37.0891803  39.9383734  68.3024836  41.6660227
  39.9899152  69.4105450  42.1987556  38.9073073  67.4688277  41.8616818
  38.9152382  66.5709974  41.3991483  37.7265539  67.8324894  42.6561505
  37.2506678  68.7311559  42.2636837  36.7044670  66.6742408  42.6724999
  37.2004160  65.7716537  43.0295316  35.5175822  67.0070917  43.5961859
  35.0208172  67.9093660  43.2394979  34.8101096  66.1778927  43.5926879
  35.8807475  67.1698889  44.6109309  36.2012189  66.3637202  41.2483327
  35.5751709  67.1990506  40.9346645  37.0753656  66.3020332  40.6001338
  35.4039679  65.0666039  41.1511982  34.5293521  65.1277240  41.7988181
  35.0825932  64.9133274  40.1209925  36.0295466  64.2307063  41.4642898
  38.1303397  68.2329448  44.0785930  37.7065815  69.2712632  44.5754400
  38.9925445  67.4575870  44.7276170  39.3045012  66.5946607  44.3055500
  39.4617701  67.7797285  46.0712334  38.6156789  67.9501795  46.7369475
  40.2862917  66.6104226  46.6172919  40.9904311  66.3469895  45.8280581
  40.8363559  66.9274026  47.5033241  39.4692420  65.3815673  46.9678979
  38.2669319  65.3928164  47.1373085  40.1350253  64.2580555  47.1399791
  39.6377944  63.4108578  47.3747498  41.1396547  64.2490167  47.0363513
  40.2856875  69.0755142  46.1196941  40.2202979  69.7883924  47.1217694
  41.0427994  69.3813150  45.0749737  41.1470037  68.6993224  44.3373241
  41.7815041  70.6430598  44.9645601  42.3673192  70.8070362  45.8690111
  42.7326907  70.6078625  43.7651973  43.2774172  69.6637387  43.7635845
  42.1563602  70.6957858  42.8442127  43.6438033  71.6736187  43.8505820
  44.2379986  71.6477683  43.0970148  40.8233497  71.8266076  44.8430536
  40.9186572  72.7613680  45.6385286  39.8380874  71.7382738  43.9317462
  39.8012030  70.9173250  43.3445648  38.8301889  72.7822781  43.7301386
  39.3106604  73.7347589  43.5064719  37.9296391  72.3992828  42.5509463
  37.5861179  71.3778834  42.7147627  37.0741778  73.0747623  42.5545938
  38.6380222  72.4862489  41.2081137  38.9485316  73.5181383  41.0441353
  39.5173883  71.8427777  41.2357214  37.5614822  71.9651953  39.8481193
  38.5676436  72.4558711  38.4275139  39.5219699  71.9301391  38.4585993
  38.0437868  72.2026782  37.5057938  38.7444070  73.5309285  38.4607938
  37.9506282  73.0104384  44.9654603  37.6177988  74.1400241  45.2930849
  37.6011307  71.9453734  45.7072001  37.8029090  71.0126406  45.3764519
  36.8703798  72.0926731  46.9743212  35.9933346  72.7234564  46.8293957
  36.4100181  70.7231343  47.4725577  37.2854751  70.0738097  47.4653502
  36.0707572  70.8633757  48.4988785  35.2874799  70.0777404  46.6462764
  35.5721874  70.0475791  45.5945479  35.0610872  68.6548059  47.1530828
  34.7758765  68.6841835  48.2046962  34.2658996  68.1846907  46.5744904
  35.9796923  68.0786264  47.0422577  33.9687979  70.8309823  46.7517008
  34.1025410  71.8509183  46.3912252  33.2135138  70.3286621  46.1472823
  33.6447936  70.8534702  47.7921885  37.7189513  72.7890546  48.0481173
  37.1749867  73.5010542  48.8838883  39.0391744  72.5707673  48.0388087
  39.4199419  71.9016423  47.3850602  39.9559527  73.2065695  49.0011778
  39.5126791  73.2391848  49.9964385  41.2431800  72.3726767  49.0646024
  40.9684609  71.3178784  49.0591942  41.8401680  72.5966482  48.1805537
  42.0596705  72.6806816  50.3229180  42.3101758  73.7414816  50.3300840
  41.4581292  72.4440049  51.2005478  43.3523975  71.8490353  50.3486769
  43.9727100  72.1255537  49.4961225  43.8924875  72.0558770  51.2725918
  43.0708350  70.4002889  50.2791396  42.0936027  70.1471854  50.3116196
  43.9685664  69.4364510  50.1834535  45.2475418  69.6826885  50.1831644
  45.5753574  70.6350895  50.2577914  45.9055105  68.9200784  50.1083128
  43.5965211  68.1840268  50.0813514  42.6137343  67.9512248  50.0755758
  44.2943072  67.4574277  50.0089150  40.2428570  74.6646752  48.6477152
  40.3968059  75.4805436  49.5515223  40.2690965  74.9646503  47.3492459
  40.2478028  74.1851271  46.7073818  40.4185077  76.3059385  46.8017979
  40.1964892  77.0493165  47.5674323  41.8585824  76.5161990  46.3174658
  42.5237208  76.3811599  47.1703753  42.0828326  75.7651561  45.5600053
  42.0637139  77.9107407  45.7278596  41.1719802  78.7727535  45.9057751
  43.1171390  78.1053595  45.0918091  39.3787535  76.5379402  45.6894314
  39.6551414  76.2842371  44.5096342  38.1635670  77.0101603  46.0409380
  37.6502809  77.1661032  47.3890983  37.9754450  78.1326164  47.7740927
  38.0616471  76.3708926  48.0108031  36.1281035  77.0703105  47.2500419
  35.6233923  77.6323242  48.0358575  35.7941989  76.0329942  47.2742088
  35.8844800  77.6862754  45.8841301  35.8340567  78.7749588  45.9021557
  34.9702444  77.2879620  45.4441082  37.1003276  77.2339146  45.0643264
  36.8790411  76.2675055  44.6113540  37.4414765  78.2419727  43.9697729
  36.7734515  78.2379025  42.9431352  38.4691874  79.0722470  44.1344932
  38.9330323  79.0970420  45.0313391  38.8999648  80.0193744  43.1034469
  38.0475571  80.6044850  42.7582720  39.9557814  80.9775209  43.6674650
  40.0260040  81.8338710  42.9967695  39.6176365  81.3116637  44.6483354
  41.2250097  80.3699064  43.7891749  41.8510092  81.0049542  44.1447571
  39.4228111  79.3353979  41.8297927  39.4544814  79.9529582  40.7712322
  39.7560196  78.0353860  41.9260075  39.7514797  77.6113248  42.8426595
  40.1705008  77.2146494  40.7814837  40.8189955  77.7881669  40.1191912
  40.9455284  75.9886609  41.2864030  40.2730540  75.4122017  41.9216763
  41.2228514  75.3928530  40.4168026  42.2043314  76.3544998  42.0761890
  42.8752592  76.9238200  41.4328919  41.9014729  76.9721527  42.9216970
  42.9560268  75.1334575  42.6074928  42.7500167  73.9928117  42.2146557
  43.8761039  75.3374400  43.5213042  44.3935071  74.5551513  43.8960307
  44.0623292  76.2757235  43.8454115  38.9905968  76.7521469  39.9146452
  39.2060451  76.2119128  38.8253320  37.7469730  76.9178806  40.3732005
  37.6254010  77.2778620  41.3090066  36.5554747  76.5173903  39.6236184
  36.7214329  75.5596192  39.1304332  35.3234300  76.4132670  40.5475952
  35.1702848  77.3715105  41.0439985  34.0676638  76.0511915  39.7325383
  34.2198869  75.0927766  39.2361819  33.2084103  75.9818769  40.3996063
  33.8847515  76.8223221  38.9842070  35.5695461  75.3609728  41.6484775
  35.6050515  74.3889059  41.1566177  36.5428023  75.5814993  42.0869293
  34.5058033  75.3362200  42.7524565  33.5322824  75.1152789  42.3148015
  34.7578075  74.5678881  43.4833869  34.4700317  76.3078737  43.2451117
  36.3435034  77.5079828  38.4709959  36.2202592  78.7080234  38.7258733
  36.2330937  77.0381814  37.2013364  36.3357978  75.6398580  36.7947981
  35.5981321  75.0660626  37.3557869  37.3362138  75.2847698  37.0421427
  36.0669259  75.6272121  35.2811908  35.0057964  75.4992862  35.0673259
  36.6346258  74.8406167  34.7841136  36.5579083  77.0038889  34.8550475
  36.1023764  77.3628623  33.9321565  37.6427985  77.0081291  34.7497156
  36.1406926  77.9069656  36.0304200  36.8976011  78.6822573  36.1492081
  34.7633180  78.5623955  35.8303007  34.4496226  79.0457625  34.7451945
  33.9221887  78.5826251  36.8599775  34.1890233  78.0118230  37.6493339
  32.6402898  79.2805213  36.9120367  32.5786293  80.0103525  36.1047923
  31.4911658  78.2767859  36.7541815  31.6217459  77.7804984  35.7925440
  31.5702502  77.5419908  37.5553818  30.1122059  78.9380905  36.8033732
  29.8398238  79.6785534  37.7711091  29.3111000  78.7079596  35.8844526
  32.5683342  80.0665594  38.2252767  32.5390611  79.4958005  39.3224751
  32.5564440  81.3949002  38.1178790  32.5316217  81.8192936  37.2017057
  32.5781630  82.2713664  39.2870711  33.4511320  82.0044813  39.8827191
  32.6825209  83.2956129  38.9291213  31.3245778  82.1752277  40.1673071
  31.4054551  82.3795239  41.3831541  30.1652385  81.8264395  39.5958448
  30.1183129  81.7796842  38.5880198  28.9311042  81.5985049  40.3626326
  28.8170022  82.3902213  41.1030818  27.6827279  81.5802777  39.4669484
  27.8077207  80.7989057  38.7173259  26.4147868  81.3114892  40.2756654
  26.2888626  82.0927567  41.0252420  25.5524042  81.3058672  39.6090581
  26.4971571  80.3437943  40.7705223  27.5047733  82.9218889  38.7418674
  28.3778716  83.1176786  38.1193984  26.6139936  82.8813348  38.1149970
  27.3959424  83.7204627  39.4757180  29.0752388  80.3065823  41.1576081
  28.9105454  80.3324759  42.3760213  29.4488557  79.2061979  40.5107522
  29.5190433  79.2386820  39.5037180  29.6631707  77.9245272  41.1791671
  28.7738442  77.6382882  41.7406515  29.9524081  76.8385683  40.1299121
  29.1076687  76.8238034  39.4412202  30.8522593  77.1403768  39.5939275
  30.1559091  75.4311405  40.7227412  31.0332872  75.4643366  41.3686565
  28.9445614  74.9474789  41.5305959  28.0668353  74.9135770  40.8851918
  29.1441749  73.9508306  41.9242294  28.7608529  75.6339264  42.3571196
  30.3929800  74.4296388  39.6040554  31.2822264  74.7154502  39.0422262
  30.5361996  73.4362832  40.0293013  29.5307511  74.4180213  38.9373282
  30.7659185  78.0031805  42.2365856  30.5784849  77.4879813  43.3429167
  31.8591251  78.7095239  41.9583246  31.9669769  79.0698559  41.0209729
  32.9362590  78.9370631  42.9146595  33.3959105  77.9844634  43.1780480
  33.9984728  79.8285303  42.2535687  33.5555252  80.7895943  41.9923147
  34.8241876  79.9862202  42.9474197  34.3704406  79.3431924  41.3512460
  32.4192726  79.5667873  44.2219344  32.7086941  79.0694506  45.3151413
  31.5898994  80.6147619  44.1134020  31.4276547  81.0216882  43.2033542
  30.9910418  81.2600459  45.2760014  31.7482158  81.4780634  46.0291647
  30.3507544  82.5818554  44.8267903  31.0970981  83.1724651  44.2955179
  29.5202097  82.3592331  44.1569136  29.8283859  83.3963534  45.9908183
  30.3693446  83.4436184  47.0748615  28.7226219  84.0909916  45.8041289
  28.3450820  84.6460195  46.5587861  28.2586465  84.0646026  44.9073953
  29.9933436  80.3496386  46.0065257  29.9903546  80.2876174  47.2353147
  29.1751993  79.5837229  45.2713698  29.1935357  79.6973540  44.2679501
  28.2175046  78.6335310  45.8460131  27.5633660  79.1354308  46.5589637
  27.3546548  78.0439683  44.7182276  28.0342469  77.6135660  43.9826953
  26.7462545  77.2529301  45.1566425  26.4362052  79.0769179  44.0278760
  27.0729576  79.9185111  43.7551706  26.0063775  78.6401314  43.1264506
  25.3114288  79.5852367  44.9024131  24.7781621  78.8795145  45.7389768
  24.8835103  80.8055265  44.7147631  24.1335325  81.1678621  45.2860317
  25.3047316  81.3807045  43.9993303  28.9207580  77.5128520  46.6302805
  28.5296905  77.1896734  47.7570404  29.9952400  76.9629136  46.0823506
  30.2126780  77.2146678  45.1287050  30.8363889  75.9598747  46.7463406
  30.2214194  75.1347478  47.1056139  31.8846724  75.4003166  45.7558148
  32.3652865  76.2467746  45.2652864  32.9464788  74.5385386  46.4413599
  32.4666368  73.6915645  46.9317551  33.6546962  74.1735444  45.6975132
  33.4757655  75.1355778  47.1839913  31.2063597  74.5289188  44.6899088
  30.4821209  75.1275780  44.1374711  31.9589633  74.1438669  44.0018518
  30.6955730  73.6955710  45.1723289  31.5034454  76.5453403  47.9863501
  31.4611162  75.9339557  49.0492980  32.0573403  77.7566741  47.8851586
  32.0988756  78.1900179  46.9737930  32.6681326  78.4604919  49.0185846
  33.4924352  77.8784518  49.4307178  33.2137238  79.8066086  48.5345019
  33.9689627  79.6203230  47.7709503  32.3769189  80.3476331  48.0927439
  33.8158806  80.6324814  49.6469993  33.0797769  81.6796207  50.2435131
  32.0746062  81.8953416  49.8813036  33.6262124  82.4380499  51.2891336
  33.0595664  83.2514465  51.7423446  34.9275295  82.1443044  51.7471864
  35.4684199  82.8761228  52.7732592  34.8765458  83.5572966  53.1008061
  35.6709599  81.0984852  51.1634231  36.6745080  80.8692746  51.5218280
  35.1129542  80.3516084  50.1165102  35.6843328  79.5445478  49.6579475
  31.6743657  78.6501519  50.1708178  31.9910943  78.3314802  51.3197932
  30.4386902  79.1007411  49.8709556  30.2316287  79.3660782  48.9186841
  29.3958105  79.2713205  50.8799029  29.7451692  79.9351175  51.6707387
  28.1499204  79.8845398  50.2426565  27.9218452  79.3195704  49.3388366
  27.3267494  79.7849725  50.9501704  28.3415056  81.3692358  49.8845880
  28.5966837  81.9418157  50.7762927  29.1575746  81.4354524  49.1650403
  27.0885366  81.9749210  49.2580713  25.9879623  81.4575881  49.3713574
  27.1921490  83.0999128  48.6031835  26.3721074  83.5133999  48.1828721
  28.0918437  83.5512859  48.5200387  29.0322212  77.9473185  51.5625913
  28.8421251  77.9304554  52.7817542  28.9779922  76.8346130  50.8313434
  29.0506754  76.9100904  49.8267939  28.7411081  75.5121614  51.4125952
  27.8260353  75.5191512  52.0047877  28.5914559  74.4747409  50.2904437
  29.3684351  74.5687638  49.5317855  28.5759610  73.4527772  50.6691920
  27.0168800  74.7149067  49.4290216  27.1784513  73.7180589  48.5635232
  29.8531066  75.1098718  52.3879077  29.5645035  74.7459046  53.5171868
  31.1109022  75.2334340  51.9805091  31.2697692  75.5422345  51.0320879
  32.2749374  74.8480231  52.7924928  32.1703771  73.8375188  53.1875212
  33.5548738  74.9348745  51.9353297  33.5599472  75.8986831  51.4262642
  34.8362379  74.7980544  52.7932103  34.8321032  73.8342306  53.3022558
  35.7136378  74.8648542  52.1499312  34.8664588  75.5986054  53.5323341
  33.5200664  73.8421810  50.8492969  33.6707957  72.8844529  51.3474317
  32.5280539  73.8643350  50.3981650  34.5722112  74.0212318  49.7675357
  35.5645750  73.9987200  50.2178768  34.4859809  73.2149867  49.0390905
  34.4218343  74.9786038  49.2686114  32.3852923  75.6797395  54.0727125
  32.6276763  75.1437858  55.1458894  32.1657863  76.9986297  53.9838715
  31.9765136  77.3994389  53.0763324  32.2914063  77.9045687  55.1324250
  33.2017448  77.6678368  55.6831889  32.3730248  79.3670465  54.6510694
  31.5459751  79.5320902  53.9605272  32.2964958  80.3869462  55.7922228
  33.1235497  80.2228161  56.4829789  32.3597016  81.3955045  55.3836698
  31.3517223  80.2690015  56.3228769  33.7055703  79.6006982  53.9341167
  33.7786408  78.9333335  53.0754043  33.7599158  80.6352594  53.5952517
  34.5281489  79.4000724  54.6205674  31.1653141  77.7151291  56.1519538
  31.3810300  77.9104338  57.3515624  29.9634201  77.3319406  55.6980701
  29.8255750  77.2632002  54.6998853  28.8052464  77.1372745  56.5743074
  28.9124099  77.7343650  57.4799001  27.5305995  77.5772777  55.8454846
  27.5223575  77.1984723  54.8234583  26.6722242  77.1794506  56.3868029
  27.4186543  79.0864629  55.8029736  27.1017018  79.7319485  56.7865464
  27.7023914  79.6967028  54.6739734  27.6362659  80.7029169  54.6168736
  27.9852325  79.1565808  53.8687592  28.6923235  75.7138152  57.1291380
  28.0211059  75.5398171  58.1543841  29.3362580  74.7231689  56.5140932
  29.7823630  74.9177501  55.6290916  29.3607798  73.3520291  57.0148810
  28.3675817  73.0538082  57.3506204  29.8021754  72.4076999  55.8934117
  29.3593388  72.7588892  54.9613918  30.8880129  72.4766010  55.8277654
  29.3972576  70.9511308  56.1332808  29.4156359  70.5189512  57.3114119
  29.0575822  70.2750546  55.1442401  30.2683165  73.2442153  58.2475384
  31.4339532  73.6437056  58.2238850  29.7354554  72.7300343  59.3588489
  28.7364783  72.5845980  59.3903490  30.5047728  72.5135149  60.5794431
  31.4899614  72.9717331  60.4926167  29.7701039  73.1518097  61.7649646
  30.3668335  73.1097462  62.6761417  29.4971431  74.1864785  61.5574725
  28.2183188  72.2871532  62.1391303  27.8684142  73.0648779  63.1597230
  30.8712292  71.0442804  60.8252815  31.5415573  70.7515834  61.8155192
  30.4542148  70.1245085  59.9519479  29.9451366  70.4546199  59.1445042
  30.6194950  68.6800239  60.1254978  31.1729022  68.4624207  61.0390013
  29.2286626  68.0349605  60.2285287  28.6030609  68.2682319  59.3669568
  29.2858317  66.9536301  60.3532531  28.3381593  68.6636956  61.6830080
  27.2346228  67.9465640  61.4911025  31.4398668  68.0136362  59.0172408
  32.1310618  67.0304986  59.2873186  31.3821011  68.5521778  57.7899490
  30.7837128  69.3565488  57.6674012  32.0655362  68.0139736  56.6191913
  32.8212957  67.2901738  56.9242169  31.0495843  67.3081069  55.7048281
  30.1797748  67.9603091  55.6263223  31.5112862  67.1993692  54.7234477
  30.6187560  65.9556060  56.2093488  31.3616720  64.8026801  55.8728807
  32.2563084  64.9062823  55.2588841  30.9608659  63.5366056  56.3186549
  31.5324906  62.6469128  56.0544697  29.8050385  63.4198620  57.1059509
  29.4040792  62.1771392  57.5351217  29.9847759  61.4725118  57.2386570
  29.0542465  64.5571460  57.4706023  28.1646765  64.4652670  58.0937587
  29.4674619  65.8203781  57.0190897  28.8991503  66.7094975  57.2921989
  32.8266748  69.0957164  55.8479645  32.6162315  70.2947201  56.0169046
  33.7032832  68.6368767  54.9486388  33.8641494  67.6400699  54.9241899
  34.4346193  69.4779419  54.0098168  34.4409320  68.9665630  53.0472416
  33.8898798  70.4175743  53.9178968  35.8740801  69.7764407  54.4234060
  36.2753014  69.5518908  55.5706325  36.6715709  70.3133574  53.4860587
  36.2524857  70.7652991  52.1690916  35.3157361  71.3133142  52.2704810
  36.0956181  69.8928813  51.5347583  37.3899646  71.6413975  51.6771574
  37.2703659  72.6692693  52.0196112  37.4540865  71.6266029  50.5891450
  38.6185319  70.9831357  52.3051789  39.4216532  71.7034005  52.4611076
  38.9884840  70.1513387  51.7057220  38.1104189  70.4682942  53.6571492
  38.5253243  69.4817952  53.8639617  38.4868217  71.4298688  54.7941858
  39.5067284  71.2277879  55.4572331  37.6601141  72.4413036  55.0756518
  36.8780343  72.6266953  54.4640307  37.8897782  73.3491839  56.2068837
  38.9125510  73.7259403  56.1974155  36.9257154  74.5412938  56.0840429
  37.1452023  75.0287471  55.1341407  35.9102754  74.1456593  56.0627129
  37.0538356  75.5673713  57.2302507  36.8604054  75.0514366  58.1707277
  38.4407845  76.2093293  57.2773740  38.6347589  76.7258807  56.3373488
  38.4832795  76.9238061  58.0994554  39.1944316  75.4365817  57.4289575
  36.0135386  76.6665835  57.0399755  35.0153620  76.2288586  57.0517944
  36.1004945  77.3935622  57.8474667  36.1803153  77.1639332  56.0845030
  37.7289773  72.6226887  57.5429139  38.5402594  72.8090505  58.4499308
  36.6953647  71.7878060  57.6730291  36.0273893  71.7303789  56.9176416
  36.4436975  70.9976396  58.8881862  36.4566375  71.6484325  59.7624861
  35.0771742  70.3047917  58.8130269  35.0347812  69.7466947  57.8777036
  34.8369000  69.3532085  59.9851748  34.8786867  69.9107033  60.9208855
  33.8556553  68.8898501  59.8824210  35.6048046  68.5796398  59.9891340
  33.9513143  71.3482335  58.8213712  34.0625261  72.0103746  57.9627076
  32.9868301  70.8432762  58.7676319  34.0040103  71.9330257  59.7397078
  37.5539085  69.9745378  59.1081299  38.0315443  69.8442140  60.2285930
  38.0009505  69.3022000  58.0492133  37.5453769  69.4487825  57.1597946
  39.0753227  68.3075789  58.1242211  38.8439863  67.5617445  58.8846906
  39.2230036  67.5989246  56.7713776  39.3951306  68.3547980  56.0051356
  40.0995663  66.9558437  56.8500212  38.0018383  66.7535333  56.3897521
  37.2345125  66.3674102  57.3000366  37.8391428  66.5190984  55.1711790
  40.3968385  68.9500099  58.5555453  41.0718719  68.4397844  59.4533698
  40.7241567  70.1208084  58.0104181  40.1535280  70.4711508  57.2542816
  41.9033919  70.8886898  58.4011041  42.8095650  70.2934836  58.2885027
  42.0051188  72.1157922  57.4834848  42.0286476  71.8389076  56.4295016
  41.1944914  72.8241212  57.6545209  43.5368006  73.0216803  57.7979045
  43.3256152  73.9709784  56.8906382  41.8542921  71.2932291  59.8863479
  42.8334975  71.0944367  60.6143228  40.7064658  71.7983234  60.3588747
  39.9575014  71.9939305  59.7101147  40.5247846  72.1766326  61.7674950
  41.3374913  72.8216520  62.1014965  39.1735486  72.9085026  61.9586194
  38.3947415  72.3305760  61.4610647  38.8218154  73.0663469  63.4497414
  39.5999880  73.6446049  63.9479038  37.8674587  73.5841405  63.5456266
  38.7487174  72.0821647  63.9124954  39.2222682  74.2970120  61.2846987
  39.8688797  74.9302006  61.8922072  39.6674363  74.1638514  60.2987002
  37.8387129  74.9654031  61.1381593  37.3930920  75.0993235  62.1238506
  37.9529693  75.9365859  60.6566528  37.1916476  74.3329727  60.5303450
  40.6509380  70.9532065  62.6904115  41.3301736  71.0288089  63.7067310
  40.0412988  69.8175111  62.3434330  39.4573168  69.8169246  61.5193796
  40.1284127  68.5872390  63.1337333  39.8078911  68.7839206  64.1568078
  39.2279540  67.4966318  62.5389402  39.3685237  67.4993036  61.4580460
  39.5511224  66.5378781  62.9444690  37.7422683  67.7142545  62.8622084
  37.5932540  67.6439223  63.9396819  37.4389847  68.7029316  62.5177688
  36.8964715  66.6470651  62.1591532  37.0353193  66.7374887  61.0818214
  37.2264364  65.6609626  62.4859935  35.4093971  66.8283630  62.5005482
  35.2819770  66.6758774  63.5722818  35.1193132  67.8467340  62.2419540
  34.5532434  65.8658485  61.7580991  34.8215936  64.9221425  61.9979051
  33.5857449  66.0143418  62.0070898  34.6708422  66.0072640  60.7649872
  41.5649439  68.0759505  63.2361554  41.9807013  67.6871943  64.3197975
  42.3193617  68.1138582  62.1398590  41.8883713  68.3620580  61.2608007
  43.7338296  67.7384997  62.1375182  43.8533120  66.7415054  62.5615765
  44.2813707  67.7305366  60.7043956  43.5883952  68.2383926  60.0336002
  45.2602576  68.2060047  60.6426665  44.4478313  66.3309464  60.1730434
  45.4615034  65.4697384  60.5193028  45.2664274  64.3117186  59.8608953
  45.9733014  63.4963433  60.0144902  44.1721566  64.3918102  59.0965880
  43.7804420  63.6874473  58.4878742  43.6411595  65.6660688  59.2904878
  42.7312776  65.9625410  58.7686445  44.5732399  68.6595803  63.0254799
  45.3489417  68.1712278  63.8412345  44.3778164  69.9727422  62.9004143
  43.7531412  70.3205470  62.1870336  45.1035950  70.9385661  63.7130444
  46.1748197  70.7974864  63.5692621  44.7259140  72.3572678  63.2421139
  43.6576085  72.5168122  63.3882948  45.2850652  73.0932982  63.8197898
  44.9676791  72.4660965  62.1848508  44.8286382  70.7423942  65.2118374
  45.7652399  70.6309368  66.0023863  43.5553696  70.6025482  65.5975006
  42.8256329  70.7194837  64.9090896  43.1646520  70.3792356  66.9948056
  43.6361971  71.1152290  67.6460030  41.6324192  70.4812754  67.1295031
  41.1723707  69.8471718  66.3716321  41.1709872  70.0339343  68.5160504
  41.6302903  70.6679124  69.2744784  40.0861535  70.1163909  68.5826648
  41.4669413  68.9979872  68.6813498  41.1600080  71.9358948  66.8790835
  41.5584608  72.5478741  67.6882915  41.5950951  72.2575672  65.9328671
  39.6314567  72.0957678  66.8207453  39.1956691  71.7747061  67.7668470
  39.3815499  73.1416628  66.6425614  39.2323031  71.4843969  66.0114234
  43.6973119  69.0345757  67.5146578  44.1126233  68.9526600  68.6678825
  43.6927227  67.9847430  66.6890070  43.2585206  68.0773424  65.7818172
  44.2926523  66.6982165  67.0427018  43.7505485  66.2754235  67.8885556
  44.2152840  66.0248994  66.1890288  45.7635474  66.8523853  67.4221919
  46.1560058  66.4900443  68.5319375  46.5281988  67.5127099  66.5572881
  46.1189853  67.7955283  65.6782787  47.9417696  67.7832655  66.7795584
  48.4816475  66.8607379  66.9930389  48.5281316  68.4117028  65.5072506
  48.3548425  67.8030083  64.6198042  48.0893748  69.3987954  65.3615083
  50.0092833  68.6116169  65.6072605  50.9430639  67.6247455  65.8449149
  52.1536844  68.1961948  65.9041143  53.0184254  67.5603426  66.0938877
  52.0611516  69.5172416  65.7067967  52.8005665  70.2049602  65.6865838
  50.7117911  69.7927099  65.5263098  50.3828721  70.8178154  65.3558035
  48.1936736  68.6784944  68.0001790  49.0807221  68.3840606  68.8050489
  47.3935317  69.7284859  68.2128218  46.6915091  69.9588681  67.5242089
  47.5123176  70.5845188  69.3981541  48.5031845  71.0372803  69.4340561
  46.4577500  71.7096304  69.3450780  45.5122346  71.2619698  69.0389736
  46.3576693  72.1163095  70.3514059  46.8284063  72.8387450  68.3713038
  47.7484951  73.3070564  68.7209061  47.0034138  72.3752443  67.4004080
  45.7205880  73.9136533  68.2378723  45.9280473  74.8690697  67.4649505
  44.6552119  73.7818050  68.8889573  47.3340630  69.8028868  70.7117273
  48.0442109  70.0570131  71.6845077  46.4115101  68.8265264  70.7432636
  45.7923156  68.6991824  69.9555575  46.1949412  68.0088655  71.9330996
  46.2478209  68.6332326  72.8249900  44.8207613  67.3456508  71.8826435
  44.6305712  66.8876897  70.9119744  44.7592735  66.5850370  72.6609660
  43.6922915  68.3095344  72.1324783  43.1521091  69.1627047  71.2103631
  42.1883497  69.8834615  71.8080382  41.6466291  70.6296114  71.2267482
  42.0752655  69.5183051  73.0877888  41.4320706  69.8747983  73.7801131
  43.0244808  68.5303564  73.3161368  43.1223240  68.0872095  74.3071709
  47.3057029  66.9737546  72.1537349  47.6434199  66.6854385  73.3041339
  47.9109799  66.4501859  71.0954676  47.5367529  66.6318538  70.1751142
  49.1008055  65.5947215  71.2074473  48.9068261  64.7741470  71.8981924
  49.4557663  65.0091848  69.8407068  49.4596251  65.8343657  69.1285546
  50.4603333  64.5936622  69.9199916  48.4896397  63.9211057  69.3565588
  48.5582422  62.9943322  69.9261950  47.5087000  64.3704038  69.5114382
  48.6835561  63.6202591  67.8677147  47.6921652  63.2030636  67.2355336
  49.7806941  63.9202685  67.3351581  50.3046670  66.3808195  71.7401288
  51.0029024  65.9078281  72.6384909  50.5183236  67.6134866  71.2536727
  49.9676123  67.9168639  70.4632434  51.5706697  68.5097567  71.7552708
  52.5249685  67.9839884  71.7239554  51.6829422  69.7840468  70.8996444
  50.6886294  70.2226258  70.8154433  52.6454158  70.8126419  71.5076524
  53.6401128  70.3749119  71.5917446  52.6894842  71.6930837  70.8665746
  52.2913919  71.1017121  72.4972014  52.2123006  69.4435364  69.5018303
  51.5299784  68.7474605  69.0139607  52.2861100  70.3550452  68.9087001
  53.1977392  68.9856419  69.5875283  51.3176223  68.8483531  73.2280687
  52.2221704  68.6965515  74.0463107  50.0845135  69.2028680  73.5916288
  49.3853012  69.3460271  72.8769911  49.7154110  69.4602703  74.9861149
  50.3115713  70.2747446  75.3976045  48.2342445  69.8611265  75.0389647
  48.1515678  70.7999381  74.4913366  47.6638149  69.0887330  74.5230981
  47.6745555  70.0471503  76.4663583  47.8002511  69.1076151  77.0044800
  48.3837576  71.1646270  77.2230896  48.2581045  72.1046312  76.6857795
  47.9553339  71.2571069  78.2210882  49.4455995  70.9322171  77.3041934
  46.1803378  70.3751476  76.3995116  45.6502738  69.5589810  75.9085904
  45.7908711  70.5053102  77.4092020  46.0347191  71.2949635  75.8330904
  49.9963923  68.2401578  75.8779937  50.5554898  68.3885564  76.9685935
  49.6378712  67.0455340  75.4356414  49.1004025  66.9849980  74.5826689
  49.8969221  65.8126954  76.1818388  49.5160696  65.8951577  77.1998027
  49.1853822  64.6478068  75.4857099  48.1185264  64.8702811  75.5062806
  49.5326993  64.6312664  74.4526575  49.4356901  63.2707043  76.1340682
  50.4908108  63.0288407  76.0063063  49.0851201  63.2436301  77.6145697
  48.0299719  63.4849601  77.7431031  49.2816353  62.2498432  78.0169006
  49.6922782  63.9766669  78.1457160  48.5826994  62.2234005  75.4263432
  48.8534274  62.1861805  74.3711558  48.7546952  61.2471871  75.8796931
  47.5293887  62.4871545  75.5215774  51.4018436  65.5690964  76.3493997
  51.8397291  65.2297272  77.4473691  52.1886444  65.7877963  75.2940491
  51.7500059  65.9660422  74.4019034  53.6432793  65.6941018  75.3429134
  53.9517250  64.7011161  75.6699299  54.2121945  65.9470779  73.9269619
  53.7794790  65.2079296  73.2527838  53.9070244  66.9457500  73.6145114
  55.7430871  65.8435469  73.8845573  56.1603676  66.5743279  74.5773322
  56.0325851  64.8403834  74.1975365  56.2794759  66.1131242  72.4733425
  55.8408898  67.0359546  72.0937044  57.3636284  66.2174434  72.5161259
  55.9458519  65.0129317  71.5441835  55.5928492  64.1751503  71.9841956
  56.0492907  65.0376157  70.2290709  56.3971665  66.1131625  69.5939965
  56.5960811  66.9584615  70.1097509  56.4675943  66.1006112  68.5865333
  55.8218643  63.9672010  69.5198716  55.5629092  63.1060545  69.9797292
  55.9057390  64.0042981  68.5140448  54.2349054  66.6535770  76.3805742
  55.0266036  66.2203462  77.2138994  53.7994273  67.9084968  76.3751648
  53.1469600  68.1904032  75.6575893  54.2810169  68.9232266  77.3118311
  55.3697796  68.9689427  77.2872339  53.7245200  70.2968102  76.9242446
  52.6524870  70.1545289  76.7878610  53.8966579  70.9902370  77.7474261
  54.3315387  70.8702535  75.6377610  55.4027655  70.3758257  75.1988906
  53.7356866  71.8385753  75.1082449  53.9197431  68.5663652  78.7582765
  54.7666869  68.6499089  79.6502701  52.7074454  68.0603319  79.0063521
  52.0419561  68.0180386  78.2477780  52.2771075  67.6114824  80.3347197
  52.4325216  68.3985698  81.0725809  50.7797153  67.2703749  80.2886975
  50.6341807  66.6070643  79.4360909  50.5449844  66.7353127  81.2088658
  49.8474040  68.4946890  80.1532183  50.2107506  69.1423364  79.3553255
  48.4345870  68.0234378  79.8216517  48.0703616  67.3760679  80.6193677
  47.7761373  68.8867890  79.7258945  48.4465394  67.4703242  78.8824909
  49.7932914  69.3151565  81.4442493  50.7931032  69.6729289  81.6901654
  49.1269103  70.1666704  81.3065486  49.4212719  68.6909730  82.2567119
  53.0836557  66.3961135  80.8326621  53.3957672  66.3168583  82.0275006
  53.4366117  65.4662615  79.9491316  53.0595245  65.5178604  79.0135878
  54.3013060  64.3344644  80.2874469  53.9178801  63.8202304  81.1687228
  54.3413346  63.3424630  79.1204593  54.5520751  63.9245874  78.2233424
  55.1689395  62.6596423  79.3126204  53.0429807  62.5320508  78.9146188
  52.1924924  63.2136096  78.8988638  53.1082881  61.7712903  77.5959156
  53.9583159  61.0891459  77.6111000  52.1888612  61.2022627  77.4582110
  53.2244698  62.4775078  76.7738091  52.8183619  61.5188319  80.0378796
  52.7457336  62.0424878  80.9910896  51.8944987  60.9704572  79.8538600
  53.6545310  60.8203613  80.0704225  55.7201466  64.8087154  80.6460639
  56.2730228  64.3555930  81.6538149  56.2761884  65.7499265  79.8752440
  55.7837175  66.0300099  79.0391070  57.5868271  66.3486403  80.1431562
  58.3456957  65.5724543  80.2419140  57.9752180  67.2706570  78.9715437
  57.1239178  67.9300015  78.8022747  58.8307618  67.8601197  79.3012081
  58.3276322  66.5436961  77.6641219  57.5260103  65.8527507  77.4031664
  58.4996826  67.5703643  76.5444215  59.3014995  68.2614252  76.8044664
  58.7497379  67.0574334  75.6157262  57.5706484  68.1252449  76.4136410
  59.6167957  65.7384819  77.7800897  59.5084730  64.9891673  78.5642409
  59.8231700  65.2434077  76.8311890  60.4418597  66.4062908  78.0278794
  57.5999247  67.1173187  81.4675141  58.5288634  66.9498856  82.2580658
  56.5463120  67.8795522  81.7609342  55.8280733  67.9876275  81.0591136
  56.4055854  68.6174414  83.0172688  57.2621090  69.2726412  83.1759498
  55.1331097  69.4800420  82.9460818  55.1222700  69.9886965  81.9821044
  54.2704538  68.8174886  83.0164235  55.0726460  70.5172143  84.0707256
  55.1464813  69.9069376  84.9708431  55.9264267  71.1928824  84.0194408
  53.7715015  71.3376538  84.1130001  53.7221486  72.2851800  84.9272215
  52.8035380  70.9700923  83.4145345  56.3663040  67.6791489  84.2428141
  56.8377347  68.0235210  85.3243639  55.8512759  66.4560134  84.0661997
  55.3356870  66.2942790  83.2129064  55.8642487  65.3989014  85.0810879
  55.8635538  65.8371391  86.0791091  54.6142989  64.5161586  84.9312323
  54.6141459  64.1266984  83.9131851  54.7157248  63.6904732  85.6355451
  53.2936262  65.2560321  85.1965108  53.2321309  66.0832578  84.4893921
  52.4802628  64.5555656  85.0070674  53.1795599  65.7949094  86.6211027
  53.2297854  64.9679358  87.3294042  53.9970726  66.4891866  86.8154006
  51.8497486  66.5196288  86.7808927  51.7103507  67.1814405  85.9260979
  51.0507570  65.7784495  86.7999910  51.8156913  67.3173760  88.0359295
  52.5557093  68.0045153  88.0182451  50.9238270  67.7849878  88.1135009
  51.9444152  66.7042555  88.8281495  57.1582437  64.5719766  85.1082959
  57.2270245  63.6132585  85.8786639  58.1588455  64.9194528  84.3012914
  57.9802938  65.6915030  83.6750668  59.4072567  64.1703615  84.1417025
  59.9368767  64.5178560  83.2546572  60.3147647  64.3742579  85.3676725
  59.7692939  64.0445357  86.2518920  61.2159712  63.7721673  85.2518546
  60.7209323  65.8221022  85.5609100  61.3321454  66.4368325  84.7103883
  60.4059578  66.4080487  86.6932685  60.6643158  67.3720322  86.8484676
  59.9068327  65.8919610  87.4036405  59.1942092  62.6861386  83.7862052
  59.9379834  61.8131128  84.2332486  58.1674424  62.3913285  82.9808265
  57.5206681  63.1265023  82.7332344  57.8888061  61.0403115  82.5137036
  58.2961798  60.3142230  83.2172243  56.3693031  60.8144904  82.3977874
  55.9933710  61.5510716  81.6877011  56.2096196  59.8123992  81.9997742
  55.6197116  60.9609426  83.7331530  55.8116662  61.9512384  84.1461525
  54.1209758  60.7846174  83.5116344  53.9281807  59.7943121  83.0990521
  53.5978318  60.8898294  84.4620824  53.7643352  61.5435228  82.8152361
  56.0639988  59.9387917  84.7832356  57.1277709  60.0637684  84.9853969
  55.4993761  60.0929460  85.7027675  55.8815509  58.9310415  84.4100718
  58.6080873  60.7851744  81.1877135  58.4630349  61.5401961  80.2334096
  59.3747256  59.6909704  81.1305016  59.5438564  59.1582662  81.9717628
  60.0246864  59.2588538  79.8938811  60.3315851  60.1317130  79.3176614
  61.2597588  58.4141762  80.1947348  60.9646338  57.5572575  80.8002848
  61.6878157  58.0643971  79.2553084  62.2241208  59.1788316  80.8971372
  62.9937254  58.6344515  81.0786833  59.0538930  58.4732400  79.0307635
  58.3975886  57.5455971  79.5097284  58.9855473  58.8144261  77.7380660
  59.5477267  59.5926441  77.4243300  58.0816892  58.1875746  76.7849140
  57.8402948  57.1728494  77.1013958  56.7794179  59.0011951  76.7082338
  56.0880499  58.5533573  75.9944055  56.3174302  59.0242728  77.6952165
  56.9673386  60.4461219  76.2828229  57.1056305  61.4551485  77.2520963
  57.0537435  61.1955382  78.3094562  57.3095573  62.7910539  76.8656361
  57.4195537  63.5686857  77.6214736  57.3713957  63.1225255  75.5044717
  57.5285772  64.1577754  75.2017316  57.2305374  62.1187450  74.5300125
  57.2791531  62.3733250  73.4712747  57.0278593  60.7924945  74.9211867
  56.9146937  60.0132129  74.1675199  58.7168070  58.0153089  75.4033377
  59.7645304  58.5937124  75.1028133  58.0746722  57.1953875  74.5734980
  57.4250190  56.5438382  74.9900715  58.2639922  57.1540704  73.1298347
  59.0730825  57.8261782  72.8439271  58.6233345  55.7340102  72.6765056
  57.7489825  55.1223565  72.8989636  58.7784535  55.7666060  71.5980921
  59.8624754  55.1228245  73.3544375  59.7841324  55.2496364  74.4341977
  59.9484306  53.6349006  73.0219346  60.0272680  53.5073017  71.9423041
  60.8267059  53.2046689  73.5032182  59.0527585  53.1291441  73.3826037
  61.1506247  55.8077247  72.9057548  61.1082053  56.8663032  73.1620974
  62.0015417  55.3467782  73.4073222  61.2633331  55.6998923  71.8269741
  56.9704991  57.6245622  72.4755052  55.8981399  57.2241858  72.9228065
  57.0837972  58.4474717  71.4431291  57.9720787  58.8955737  71.2691756
  55.9346074  58.8669745  70.6575150  55.0292839  58.7767112  71.2577991
  56.0813415  60.3302581  70.2062645  55.1441839  60.6072024  69.7234223
  56.2027129  60.9091970  71.1217964  57.2464105  60.6218765  69.2613634
  57.6848606  59.7140924  68.5223347  57.6884805  61.7946801  69.2814344
  55.6312360  57.8980455  69.5081363  56.3584309  56.9197440  69.2623831
  54.5249436  58.1712972  68.7992064  53.9607197  58.9593132  69.0834273
  54.0427612  57.3338606  67.7070416  53.8640861  56.3179041  68.0591878
  52.7213756  57.9067551  67.1685643  52.0059428  57.9989763  67.9857242
  52.9026031  58.8891135  66.7324124  52.1582514  56.9755335  66.1043069
  52.8652138  57.0742724  65.2805621  52.2091743  55.9638613  66.5068306
  50.7391271  57.2516036  65.5950775  50.2782110  56.3777568  64.8196240
  50.1542806  58.2893845  65.9144385  55.0867120  57.1648085  66.5907373
  55.2833510  56.0476058  66.0935108  55.7972928  58.2274454  66.2220524
  55.6125705  59.1176557  66.6619418  56.7962597  58.1747806  65.1599372
  56.3714619  57.7105716  64.2699057  57.2558889  59.5961633  64.8005124
  57.4131424  60.0708873  65.7690204  58.1950677  59.5801739  64.2475317
  56.2073105  60.3898819  64.0056332  55.3956764  59.7514529  63.2855363
  56.2873782  61.6376480  64.0554532  57.9991048  57.3078296  65.5594940
  58.4876571  56.4936916  64.7640991  58.4258348  57.3945368  66.8178705
  58.0232861  58.0995177  67.4187496  59.4787157  56.5419414  67.3605414
  60.3663809  56.5858629  66.7294941  59.8525267  57.0316436  68.7689299
  58.9311579  57.1245243  69.3438663  60.4903425  56.2747800  69.2254914
  60.5852287  58.3776085  68.7578689  61.5482510  58.2754380  68.2576188
  59.9738136  59.1043421  68.2229560  60.8239310  58.8902734  70.1751656
  60.0230235  58.7359172  71.0808302  61.9493116  59.5121688  70.4378799
  62.1255286  59.8587198  71.3700555  62.6339643  59.6413400  69.7066708
  59.0486041  55.0679818  67.4182654  59.8580459  54.1672080  67.1446752
  57.7841252  54.7929435  67.7571122  57.1915521  55.5495420  68.0677812
  57.2363245  53.4393876  67.7580802  57.8973918  52.7646273  68.3019440
  55.8638121  53.4418058  68.4461084  55.2761124  54.2251989  67.9675652
  55.3998621  52.4736870  68.2574388  55.9195589  53.6972567  69.9658315
  56.4863719  54.6065449  70.1658783  54.4988432  53.8581174  70.4937897
  53.9315101  52.9489867  70.2945078  54.5282864  54.0392230  71.5682359
  54.0192619  54.7013461  69.9967308  56.6007163  52.5493019  70.7133865
  57.6216793  52.4333424  70.3496732  56.6186452  52.7700383  71.7806518
  56.0478136  51.6254876  70.5431960  57.1313147  52.8793005  66.3348292
  57.5251004  51.7389088  66.0891349  56.6891411  53.6904325  65.3797285
  56.3176077  54.5847547  65.6665211  56.6094789  53.3277129  63.9640652
  56.0671306  52.3911938  63.8341052  55.8536096  54.4411976  63.2182272
  55.0414975  54.7864078  63.8580733  56.5487924  55.2615751  63.0398968
  55.2830568  53.9604605  61.8879237  56.1037502  53.5933626  61.2716427
  54.5848328  53.1468490  62.0844478  54.5539314  55.0934015  61.1477616
  55.2464609  55.9270954  61.0317598  54.2605372  54.7259352  60.1644063
  53.3411168  55.5771411  61.8564610  52.7912210  54.8487220  62.2890341
  52.9206028  56.8368064  61.9591329  53.5436119  57.8226691  61.3941397
  54.3784100  57.6453455  60.8539836  53.1914493  58.7637225  61.4966072
  51.8637806  57.1382989  62.6482781  51.3459516  56.4093253  63.1179063
  51.5637366  58.1005955  62.7119762  58.0019461  53.0472345  63.3826876
  58.1951450  52.0326455  62.7107825  58.9781927  53.8680919  63.7328499
  58.7460080  54.7072159  64.2447683  60.3762936  53.6533809  63.3476912
  60.4246033  53.5734140  62.2617029  61.1936171  54.8807015  63.7871686
  61.1622857  54.9688511  64.8731465  62.2275727  54.7646391  63.4622601
  60.7708155  55.7792955  63.3378727  60.9783765  52.3557090  63.9283511
  61.8685275  51.7558980  63.3205312  60.4541532  51.8732183  65.0668667
  59.8507616  52.4856867  65.5968670  60.8103276  50.5643699  65.6506986
  61.8540450  50.3310418  65.4401964  60.6136283  50.6026636  67.1720884
  59.6249100  51.0131944  67.3770272  60.6672343  49.5808825  67.5478406
  61.6724197  51.4559355  67.8661121  62.6582484  51.0421215  67.6539788
  61.6162975  52.4746118  67.4823791  61.4391810  51.4673242  69.3774026
  60.4776088  51.9314359  69.5966697  61.4438476  50.4455644  69.7569876
  62.5560454  52.2663035  70.0512067  63.5121032  51.9237542  69.6553354
  62.4199820  53.3204121  69.8094610  62.5397467  52.0906736  71.5272383
  62.6662424  51.1140372  71.7514701  63.2878359  52.6302352  71.9387427
  61.6540882  52.4084258  71.8943102  60.0759548  49.3752407  65.0072958
  60.3078445  48.2394657  65.4189099  59.1939472  49.6095567  64.0191735
  59.0078978  50.5725327  63.7780049  58.4945417  48.5635571  63.2797645
  58.2834472  48.9574587  62.2855915  59.1755298  47.7164687  63.1973289
  57.1858517  48.0902831  63.9160570  56.7159436  47.0005962  63.6060572
  56.5739430  48.8932650  64.8053707  57.0686821  49.6845444  65.1916470
  55.2405804  48.6001887  65.3095041  55.1183951  47.5227340  65.4202348
  55.0210073  49.2572656  66.6669604  55.2426382  50.3162117  66.5342501
  53.9687828  49.1363028  66.9244321  55.8816157  48.6970641  67.7826043
  55.5419725  47.4789348  68.3933585  54.6621082  46.9352446  68.0493536
  56.3257915  46.9588980  69.4405029  56.0603243  46.0109747  69.9085524
  57.4549080  47.6742247  69.8882513  58.2112539  47.1673802  70.9116220
  57.8810535  46.3288504  71.2424316  57.8045104  48.8923843  69.2845551
  58.6785508  49.4448171  69.6294783  57.0230822  49.3993024  68.2318267
  57.2956719  50.3409013  67.7551860  54.1717162  49.0256549  64.2844193
  54.1672889  50.1578001  63.8180820  53.2165760  48.1145503  63.9669216
  53.2563808  47.1967514  64.3866359  52.1111013  48.4120473  63.0464721
  52.4712379  49.0006339  62.2026909  51.5140925  47.0929275  62.5090390
  51.1375867  46.5315948  63.3641695  50.6844383  47.3517153  61.8511614
  52.5188024  46.2420025  61.7468851  53.3049409  46.8013830  60.9657285
  52.4618507  45.0122738  61.9817444  50.9608991  49.1796966  63.6959177
  50.2266694  49.9225995  63.0378911  50.7368861  48.9512800  65.0005483
  51.2918720  48.2247575  65.4297978  49.7324502  49.6297382  65.8171828
  49.2081006  50.3720432  65.2154021  48.7057692  48.6216379  66.3579360
  49.2696773  47.8253221  66.8437220  48.1069204  49.1477218  67.1013847
  47.7755766  48.0128204  65.2848788  48.3964289  47.6635840  64.4598471
  47.2554787  47.1654148  65.7315376  46.7540482  49.0177998  64.7620605
  46.2451139  49.4823663  65.6066094  47.2701493  49.7838894  64.1834019
  45.7237680  48.3105729  63.8701885  46.2102877  48.0424111  62.9323781
  45.3945825  47.4051355  64.3800112  44.5456678  49.1772507  63.5878862
  44.8504293  50.0161091  63.1150894  43.8933446  48.6777707  63.0004391
  44.0944535  49.4254987  64.4567231  50.4601006  50.3510009  66.9378085
  51.1105151  49.7135142  67.7680572  50.3259409  51.6706816  66.9407791
  49.6613012  52.0576644  66.2861053  51.0874897  52.5905207  67.7780846
  51.6586746  51.9991247  68.4936947  52.0701745  53.3849248  66.9017732
  52.4572222  54.2210444  67.4841806  53.2307126  52.5088590  66.4364282
  52.8444561  51.6727225  65.8535207  53.9076738  53.0994408  65.8191472
  53.7697487  52.1280575  67.3039137  51.4382738  53.8370301  65.7180561
  52.0684242  54.3294376  65.1869763  50.1209611  53.5185030  68.5103996
  49.3687555  54.2314595  67.8469799  50.0813571  53.4885474  69.8537667
  50.8094874  52.5967474  70.7434881  51.8351805  52.5236407  70.3819507
  50.3376649  51.6152471  70.6972310  50.7213167  53.2186154  72.1310400
  51.5975422  53.8344346  72.3337581  50.6366383  52.4455157  72.8947466
  49.4458458  54.0647619  72.0657087  49.5559195  54.9138324  72.7402915
  48.5157505  53.5421311  72.2890457  49.4360177  54.5510672  70.6147199
  48.4201367  54.6920803  70.2456680  50.2214270  55.8570808  70.4579063
  51.3946802  55.8157846  70.0819602  49.6093409  56.9930249  70.7828352
  48.6505084  56.9681524  71.0992542  50.2659321  58.3005605  70.6523576
  50.5812408  58.4551306  69.6204721  49.2973966  59.4274940  71.0439096
  49.0283820  59.3210542  72.0948144  49.8626374  60.3491690  70.9056414
  48.0270061  59.4772753  70.1957146  48.0896763  59.1528924  68.9998508
  46.9674130  59.8010444  70.7822680  51.5318513  58.3818773  71.5162148
  52.5654680  58.8952836  71.0844145  51.4726570  57.8017498  72.7232583
  50.5823571  57.4419287  73.0362985  52.6082336  57.7262296  73.6352712
  53.5379434  57.8155171  73.0733400  52.5489515  58.8585627  74.6675839
  51.6620297  58.8046424  75.2989012  53.4414789  58.7804649  75.2883862
  52.5642037  60.2456543  74.0593132  53.7814010  60.8892179  73.7749689
  54.7193636  60.4101035  74.0556384  53.7953895  62.1372420  73.1357850
  54.7430179  62.6340149  72.9276555  52.5831757  62.7486512  72.7627348
  52.5922967  63.7099609  72.2490224  51.3661305  62.1213598  73.0518949
  50.4265496  62.5962203  72.7694141  51.3559483  60.8729227  73.7097963
  50.4081632  60.3907292  73.9491557  52.6714564  56.3623785  74.3344679
  51.6730266  55.8458020  74.8306873  53.8799311  55.8020985  74.4675997
  54.5994156  56.0940363  73.8216789  54.1748009  54.7022816  75.3811596
  53.3211413  54.4504208  76.0103899  54.6497309  53.4472833  74.6380581
  53.9578797  53.2647322  73.8157946  56.0691146  53.5865197  74.0878743
  56.7616486  53.7686397  74.9096587  56.3512058  52.6684905  73.5723670
  56.1080257  54.4218535  73.3887302  54.5205759  52.2054631  75.5489629
  55.2572892  52.3064343  76.3459316  53.5184678  52.2171111  75.9776156
  54.7450787  50.8798809  74.8105650  55.7472157  50.8673017  74.3820057
  54.6393870  50.0510452  75.5105363  54.0083951  50.7779796  74.0136878
  55.1458093  55.1782781  76.4606706  56.1678544  55.7982139  76.1701310
  54.8295369  54.8938524  77.7207456  53.9331694  54.4670279  77.9063402
  55.6818248  55.2319301  78.8538925  56.1629404  56.1956078  78.6867034
  54.8387594  55.3202522  80.1319735  54.4462088  54.3198402  80.3141248
  55.5166052  55.5966254  80.9395891  53.6729045  56.3263616  80.0733649
  53.0118226  56.0660509  79.2467393  52.8880530  56.2843059  81.3864713
  53.5484054  56.5449754  82.2135656  52.0645904  56.9970169  81.3411598
  52.4913582  55.2809275  81.5412790  54.1554417  57.7590501  79.8544228
  54.7010767  57.8193103  78.9127485  53.2976334  58.4306926  79.8203276
  54.8124274  58.0509195  80.6737402  56.8022785  54.1931650  78.9744393
  56.5489055  52.9964241  78.9769615  58.0490732  54.6605513  79.1050342
  58.2255388  55.6533250  79.0470726  59.1938798  53.7595527  79.2950455
  59.1694926  52.9639825  78.5503492  60.5075128  54.5357342  79.1401370
  60.4652367  55.3998246  79.8032054  61.3214472  53.8802269  79.4498484
  60.7501304  55.0062035  77.7047802  60.6171483  54.1738165  77.0137314
  60.0204299  55.7841967  77.4803569  62.1567797  55.5834973  77.5112888
  62.9319370  55.7654796  78.4317526  62.5514914  55.8709789  76.2982130
  63.4745607  56.2523406  76.1478543  61.9314416  55.7103137  75.5172993
  59.1717203  53.0793935  80.6644901  59.6051337  51.9434217  80.8037842
  58.6266783  53.7837595  81.6606436  58.4341209  54.7603641  81.4895751
  58.3342005  53.2407904  82.9887122  58.5627245  52.1750625  82.9987177
  59.1649234  53.9340787  84.0909663  58.9040172  54.9920877  84.1163431
  58.8821009  53.3072181  85.4555040  59.1432134  52.2492375  85.4310420
  59.4774162  53.8103236  86.2174652  57.8236368  53.4142955  85.6927589
  60.6689869  53.8065536  83.8065524  60.8991130  54.2737433  82.8490151
  61.2321084  54.3027412  84.5969901  60.9445806  52.7525504  83.7715342
  56.8404427  53.4256419  83.2236239  56.3652550  54.5631199  83.1553131
  56.0777222  52.3443407  83.4875802  56.5031126  50.9635031  83.6222488
  57.4088016  50.9394093  84.2282579  56.7207604  50.5713374  82.6288030
  55.3322086  50.2440551  84.2886147  55.4285221  50.2701595  85.3740368
  55.2736479  49.2082189  83.9543763  54.1197817  51.0359955  83.8188824
  53.3255839  50.9841892  84.5636408  53.7323518  50.7138787  82.8523223
  54.6457803  52.4677066  83.7189830  54.1900271  52.9566031  82.8579559
  54.3707121  53.2903369  84.9748010  55.1804113  53.3588291  85.8939109
  53.1960219  53.9032037  85.0092736  52.6351586  53.8808115  84.1696128
  52.7094418  54.6931143  86.1530866  53.3564651  54.5944945  87.0247139
  52.5783161  56.1812927  85.8059039  52.2372350  56.7129809  86.6942004
  53.9085129  56.7708255  85.3392473  54.2500253  56.2399147  84.4506507
  53.7755565  57.8264617  85.1024871  54.6502156  56.6672448  86.1312383
  51.5013966  56.4558299  84.7503306  50.5342175  56.1154484  85.1202050
  51.4558916  57.5256664  84.5466670  51.7471551  55.9218821  83.8323964
  51.3979209  54.1149258  86.6630503  50.7453325  53.3364242  85.9751583
  50.9882036  54.5117584  87.8692716  51.6470891  54.9596016  88.4900820
  49.6551003  54.2144663  88.3751826  49.1786585  53.5156442  87.6876143
  49.7537133  53.5558977  89.7500887  50.2205515  54.2469880  90.4519122
  48.7548586  53.2997030  90.1032937  50.3561910  52.6504453  89.6774525
  48.7856513  55.4713420  88.3718893  49.2006560  56.5390748  88.8200977
  47.5566940  55.3352840  87.8886779  47.3584358  54.4627193  87.4202508
  46.5066175  56.3524891  87.9334436  46.8251307  57.1837977  88.5623908
  46.1871530  56.8919042  86.5320600  45.8991089  56.0561674  85.8943501
  45.0480058  57.9136567  86.5792247  45.3355141  58.7499692  87.2164228
  44.8441275  58.2780161  85.5723601  44.1521830  57.4414756  86.9825211
  47.4112046  57.5733862  85.9001021  48.2252619  56.8534688  85.8156525
  47.1500618  57.9437125  84.9087583  47.7276448  58.4069823  86.5270661
  45.2855330  55.7265546  88.5819446  44.7242181  54.7685645  88.0491204
  44.8718153  56.2362666  89.7357996  45.4416029  56.9471781  90.1717425
  43.7211232  55.7033524  90.4888813  43.7420777  56.0835915  91.5101934
  42.4006299  56.1300913  89.8337346  42.3894124  55.7442299  88.8143797
  41.5831934  55.6834301  90.3997658  42.2295958  57.6519397  89.8051216
  42.2168567  58.0799530  90.8074904  43.1222201  57.9888774  89.2780599
  40.9843143  58.1065721  89.0408917  40.7517156  59.3287489  88.9777431
  40.2747747  57.2880986  88.4026466  43.7953637  54.1767222  90.7385421
  42.7962350  53.4721673  90.6664160  45.0044529  53.6783199  91.0014575
  45.7868377  54.3155119  91.0457243  45.2559515  52.2515120  91.2296694
  46.1738712  52.1794166  91.8130431  44.4211080  51.8713171  91.8183863
  45.4012119  51.4032400  89.9674131  45.7301604  50.2218626  90.0665772
  45.2081293  51.9876770  88.7786951  44.8830444  52.9438651  88.7675914
  45.3738130  51.2986430  87.5035108  45.2882027  50.2214367  87.6463274
  44.2883985  51.7500301  86.5209371  44.3343610  52.8093566  86.2683226
  44.4100927  51.1555104  85.6154886  42.8997881  51.4884917  87.0224158
  42.1896683  52.2845875  87.9007222  41.0322403  51.6660698  88.1733045
  40.3343759  52.1367245  88.8658133  40.9548284  50.5127359  87.4953472
  40.1966589  49.8454468  87.4974207  42.1310429  50.3820494  86.7635196
  42.2872222  49.5054160  86.1348519  46.7763165  51.5445918  86.9371557
  47.2086669  52.6899576  86.8384425  47.4727659  50.4772009  86.5324189
  47.1253062  49.5576495  86.7643592  48.7649118  50.5796472  85.8539111
  49.3792181  51.3548332  86.3119654  49.5234871  49.2402301  85.8829520
  48.8984651  48.4726908  85.4265188  50.8513193  49.3453255  85.1121378
  51.4771104  50.1123989  85.5683007  51.3690423  48.3867546  85.1468586
  50.6496211  49.6113673  84.0745258  49.7767484  48.8042439  87.3530787
  50.3955259  49.5770765  87.8090886  48.8051369  48.7793300  87.8464851
  50.4628918  47.4436281  87.5083624  51.4348318  47.4679178  87.0155719
  50.5983651  47.2231811  88.5672058  49.8444433  46.6701712  87.0529661
  48.5405829  51.0915310  84.4279260  47.6403594  50.6267653  83.7343235
  49.3692384  52.0406722  83.9854975  50.0642064  52.3775802  84.6363522
  49.3036367  52.6542783  82.6667841  48.6326527  52.1348738  81.9826068
  48.8760774  54.1351828  82.7821274  49.5832794  54.6528253  83.4302108
  48.8531305  54.8095117  81.4138731  48.1457601  54.2926721  80.7653328
  48.5489062  55.8501557  81.5261603  49.8483059  54.7681912  80.9711341
  47.5163066  54.3370532  83.5109660  47.6586911  53.9883114  84.5338084
  47.3246726  55.4100589  83.5168517  46.3223109  53.6087328  82.8849121
  46.5130259  52.5355628  82.8790999  45.4243572  53.8145074  83.4675229
  46.1790089  53.9573090  81.8621418  50.6683467  52.5162978  81.9835492
  51.6683352  53.0122381  82.5013873  50.6838477  51.8727683  80.8184988
  49.8226187  51.4367295  80.5214228  51.8697705  51.7230248  79.9663651
  52.7707096  51.9775338  80.5246062  51.9807099  50.2696545  79.4938949
  51.0452977  49.9071467  79.0676421  52.7689164  50.2090975  78.7434528
  52.3529904  49.3146021  80.5836615  53.6403522  48.8808753  80.8647835
  53.5725930  48.0040670  81.8735139  54.4914469  47.5456050  82.2390533
  52.3010349  47.8523748  82.2617735  51.9517428  47.2573927  82.9993989
  51.5179012  48.6702094  81.4617446  50.4382715  48.7034010  81.6080298
  51.8380352  52.6503882  78.7550736  52.8867165  53.0600067  78.2673256
  50.6374248  52.9833677  78.2459929  49.8172967  52.5872469  78.6825449
  50.4581039  53.8038811  77.0565326  51.3480024  54.4083469  76.8810303
  50.2247215  52.9050087  75.8301953  50.0373036  53.5148534  74.9464174
  51.1149364  52.2969538  75.6693024  49.0719803  51.9547695  75.9476910
  49.1490767  50.6666459  76.3631663  50.1362147  50.2846259  76.6233951
  47.8902557  50.0997614  76.3623268  47.7104166  49.1435493  76.6332803
  46.9416779  51.0054356  75.9584525  45.5381385  50.9296671  75.8152665
  45.0697818  49.9773855  76.0640642  44.8387559  52.0491900  75.3736632
  43.7551517  52.0236768  75.2585506  45.5260793  53.2307429  75.0698712
  44.9960401  54.1151600  74.7163683  46.9248321  53.3111682  75.2124237
  47.3898196  54.2629560  74.9555436  47.6564460  52.1995963  75.6709953
  49.3229982  54.8067941  77.2519461  48.4221302  54.5877627  78.0728110
  49.3746132  55.8995253  76.5033805  50.1980941  56.0393361  75.9355501
  48.3593036  56.9465202  76.5186534  47.4448931  56.5759889  76.9819667
  48.8377710  58.2131700  77.2645302  49.6544686  58.6773536  76.7116840
  47.6665873  59.2057613  77.3788461  46.8496269  58.7424208  77.9320115
  47.9985303  60.1012400  77.9042340  47.3211844  59.4774116  76.3813481
  49.4023804  57.8666152  78.6718206  48.5921279  57.4008773  79.2327840
  50.2034125  57.1425864  78.5227255  49.9415188  59.0716881  79.4568932
  49.1408835  59.7959902  79.6067912  50.3146489  58.7377699  80.4250728
  50.7521671  59.5377008  78.8967312  47.9571273  57.2495775  75.0812722
  48.8186987  57.5052153  74.2376313  46.6535825  57.2420428  74.8214875
  46.0432096  56.9184997  75.5582806  46.0528876  57.6414578  73.5481995
  46.8220001  57.7967849  72.7916027  45.1205576  56.5269217  73.0751341
  45.7180249  55.6208149  72.9746225  44.3665624  56.3804114  73.8485201
  44.4269472  56.8359728  71.7338530  43.6080430  56.1179332  71.7776243
  44.0212134  57.8463862  71.6834149  45.2778234  56.5646827  70.4881863
  44.7240044  56.8296695  69.3910480  46.3535868  55.9689752  70.6106597
  45.2876459  58.9497490  73.7416530  44.4344393  59.0674879  74.6291219
  45.5415636  59.9277780  72.8833832  46.2994062  59.7612998  72.2368084
  44.8635255  61.2132931  72.8345852  44.4003003  61.4360325  73.7957869
  45.8842448  62.3092941  72.5177939  46.6176996  62.3463583  73.3232562
  46.3849946  62.0598707  71.5823059  45.2581818  63.5661809  72.3946452
  45.9183071  64.2344249  72.1964425  43.7455275  61.1873934  71.7987418
  43.9688575  60.9805061  70.6094498  42.5089463  61.4580638  72.2114856
  42.3232080  61.4444149  73.2041660  41.3832247  61.6549309  71.2977951
  41.7393085  61.6259816  70.2680061  40.3255010  60.5539134  71.4831996
  40.0099948  60.5923720  72.5258290  39.4846433  60.8131636  70.8398897
  40.8097037  59.1322012  71.1461295  41.6483163  58.9132564  71.8071083
  39.9869804  58.4519480  71.3663202  41.2443900  58.9505690  69.6978786
  40.4027304  59.1750990  69.0426729  42.0640903  59.6362983  69.4834813
  41.7102894  57.5028907  69.4565986  42.1520460  57.1392538  70.3843485
  40.8289508  56.9080347  69.2168326  42.6968640  57.3847487  68.3619539
  43.5137897  57.9355398  68.5841281  42.9632080  56.4167445  68.2518230
  42.2875760  57.7212534  67.5021010  40.8117401  63.0589275  71.4632551
  40.0437831  63.3299263  72.3833571  41.1204046  63.9439914  70.5087237
  41.8618074  63.6872628  69.8727115  40.5486238  65.2897040  70.4026752
  40.5181018  65.7229950  71.4023884  41.4609907  66.1455785  69.5277011
  41.4945411  65.7294526  68.5208179  41.0749747  67.1641107  69.4866646
  42.4658164  66.1551386  69.9499961  39.0855047  65.2541956  69.9085541
  38.7037847  65.8511027  68.9029355  38.2581622  64.4946847  70.6221902
  38.6671728  63.9996976  71.4018039  36.8470401  64.2732759  70.3259767
  36.4038222  65.1829069  69.9207255  36.6954352  63.1470525  69.2871573
  35.6435864  63.0752744  69.0104602  37.2846278  63.4096012  68.4085104
  37.1345899  61.9037668  69.7938541  37.0256077  61.2275766  69.1211807
  36.0753300  63.9583730  71.5987629  36.6561754  63.7905866  72.6805823
  34.7505924  63.8644226  71.4920964  34.3109235  64.2567758  70.6718223
  33.8978011  63.2926700  72.5264711  34.3335996  63.4544819  73.5123695
  32.5235694  63.9749748  72.4796386  32.5979474  65.0585857  72.5710419
  32.0358825  63.7229257  71.5379737  31.6010057  63.5106054  73.5819667
  30.7433570  62.4250544  73.3748948  30.7117635  61.9357327  72.4014134
  29.9187397  61.9626018  74.4252918  29.2488152  61.1184708  74.2617537
  29.9626590  62.5899978  75.6778634  29.3371165  62.2279488  76.4937782
  30.8149899  63.6872813  75.8803452  30.8394310  64.1840543  76.8502521
  31.6313109  64.1429024  74.8408341  32.2959698  64.9916721  75.0018258
  33.8001339  61.7707578  72.3370368  33.5541042  61.3028086  71.2248758
  33.9842421  61.0071793  73.4037392  34.2557058  61.4460840  74.2719382
  33.8136700  59.5615348  73.3850009  34.2402113  59.1616667  72.4650731
  34.3289541  59.1281606  74.2421872  32.3351755  59.1854032  73.4517402
  31.7478100  59.1881887  74.5273587  31.7257027  58.8673578  72.3154977
  32.1815113  59.1475441  71.4588569  30.3915823  58.2841587  72.2301312
  29.8863502  58.3720536  73.1919598  29.5500215  59.0209040  71.1602416
  28.4919854  58.9100117  71.3976478  29.8422748  60.0636747  71.2840050
  29.7959695  58.5899900  69.7080609  30.7588858  57.8571081  69.4080338
  28.9608642  58.9373365  68.8523369  30.4587763  56.7626151  72.0242764
  31.5161731  56.2017372  71.7381087  29.3206744  56.0745233  72.1650409
  28.4635630  56.5624373  72.3827547  29.2776496  54.6106268  72.0444716
  29.8698337  54.1499862  72.8351848  27.8241468  54.1234588  72.1716372
  27.1962715  54.7563069  71.5444410  27.7764200  53.0953900  71.8126153
  27.3259356  54.1822299  73.6134266  27.8479362  53.5012663  74.2856651
  27.5705938  55.2110974  73.8773835  25.8087606  53.9670714  73.7429791
  25.3209489  53.9660931  74.8879725  25.0922110  53.9523510  72.7189752
  29.8528975  54.1041614  70.7200545  30.6929823  53.2067441  70.6957909
  29.4260143  54.6930253  69.6035008  28.7733933  55.4610475  69.6692803
  29.8026005  54.2161141  68.2752028  29.6188938  53.1459609  68.1796875
  28.9448392  54.9561864  67.2369435  27.8788905  54.8457705  67.4360941
  29.1958244  56.0154658  67.1818643  29.2173676  54.2879504  65.5741477
  28.3711136  55.1061781  64.9550709  31.3001678  54.3903599  68.0104146
  31.9769086  53.4419670  67.5954283  31.8460896  55.5781497  68.2730887
  31.2422164  56.3367354  68.5559035  33.2619322  55.8585209  68.0783896
  33.5716369  55.4990002  67.0971012  33.5458224  57.3653317  68.1609691
  34.6160214  57.5147903  68.0180168  33.0001388  57.8555803  67.3547522
  33.1544508  57.9205099  69.3997034  33.3503402  58.8602947  69.4053302
  34.1276404  55.0816642  69.0687557  35.1393242  54.5108170  68.6632274
  33.7240387  54.9825550  70.3383364  32.8950911  55.4825141  70.6264097
  34.4813685  54.2606965  71.3506193  35.5213889  54.5867935  71.3397759
  33.9008351  54.5299280  72.7342408  33.8216900  55.5910825  72.9704323
  32.9135258  54.0713565  72.7893096  34.7247724  53.9076806  73.8239707
  36.0181850  54.2442122  74.1510416  36.4195158  53.4360297  75.1522852
  37.4240481  53.5555433  75.5581550  35.4378557  52.5857908  75.4746766
  35.4512276  51.8677813  76.1848761  34.3626217  52.8630383  74.6441185
  33.4452384  52.2802986  74.7273262  34.5521768  52.7571265  71.0664773
  35.6310773  52.1766728  71.1447864  33.4430211  52.1204262  70.6639003
  32.5550753  52.6010262  70.6898863  33.4575193  50.7123835  70.2730543
  33.9028155  50.1131300  71.0672241  32.0362615  50.2126362  70.0230886
  31.4424286  50.9740553  69.5174181  32.0535485  49.3055305  69.4189690
  31.3057757  49.8701515  71.2930806  31.7190824  48.9496360  72.2399380
  30.8161608  48.9177604  73.2208730  30.9805602  48.2473137  74.0644209
  29.8220792  49.7697164  72.9600748  28.9988521  49.9564825  73.5146155
  30.1232405  50.3820330  71.7462625  29.4480183  51.1301291  71.3308970
  34.3481767  50.4531921  69.0525289  35.0749060  49.4524557  69.0321009
  34.3481464  51.3564678  68.0686393  33.6542728  52.0903536  68.0615351
  35.2642642  51.2576520  66.9333456  35.1573742  50.2740149  66.4760362
  34.8927271  52.3234031  65.8956098  35.0035942  53.3142999  66.3359870
  35.5509575  52.2347584  65.0313326  33.8591198  52.1798963  65.5807112
  36.7279153  51.3625089  67.3949629  37.5397797  50.4964164  67.0738822
  37.0613754  52.3516354  68.2334449  36.3701102  53.0464162  68.4774352
  38.4190024  52.5069543  68.7621330  39.1372977  52.5157154  67.9423316
  38.5416234  53.8204975  69.5327356  37.7397866  53.7823669  70.2700979
  39.5046993  53.8083317  70.0430657  38.4181934  55.0913626  68.7185533
  39.0395623  55.2057157  67.4578638  39.5999886  54.3618072  67.0555700
  38.9398601  56.3963388  66.7221938  39.4124273  56.4762992  65.7432207
  38.2190756  57.4822163  67.2446424  38.1189038  58.6498948  66.5316953
  38.5786498  58.6158661  65.6896292  37.6035459  57.3838571  68.5109084
  37.0516814  58.2285777  68.9232108  37.7054176  56.1883990  69.2404207
  37.2309455  56.1044546  70.2181373  38.8639048  51.3456156  69.6620443
  40.0202956  50.9338735  69.5789916  37.9689562  50.7833751  70.4787281
  37.0590381  51.2098103  70.5802240  38.2655604  49.5822707  71.2660192
  39.0772883  49.7861415  71.9643269  37.0173471  49.1505690  72.0714043
  36.1503312  49.3141231  71.4313787  37.1342386  48.0830673  72.2581572
  36.8135459  49.8862708  73.4093834  36.8338331  50.9635479  73.2445706
  35.4600016  49.4863066  73.9937457  35.4391235  48.4091519  74.1592771
  35.3061623  50.0020910  74.9415857  34.6675337  49.7618792  73.2979334
  37.8886725  49.5298348  74.4352519  38.8689161  49.8037181  74.0451110
  37.7021005  50.0731754  75.3615743  37.8629416  48.4580161  74.6318263
  38.7139246  48.4397698  70.3604259  39.7617123  47.8409663  70.5988983
  37.9481010  48.1667139  69.3013675  37.1030725  48.7036337  69.1681632
  38.2283258  47.0713829  68.3712760  38.4505661  46.1493161  68.9083991
  36.9822096  46.8492241  67.5142288  36.1509516  46.5970911  68.1726650
  36.7199163  47.7223911  66.9168331  37.1336821  45.7070970  66.5594405
  37.6716021  45.7688461  65.2947389  37.6806140  44.5375527  64.7703207
  38.0792896  44.3955851  63.7658297  37.1613143  43.6597751  65.6445920
  37.0332044  42.6643733  65.5311770  36.8146265  44.3859081  66.7826990
  36.3726121  43.8777454  67.6397259  39.4750246  47.3340731  67.5140660
  40.3439839  46.4720007  67.3893982  39.5874148  48.5322571  66.9504735
  38.9244559  49.2539104  67.1950167  40.6031257  48.8359582  65.9395635
  40.8230655  47.9485239  65.3461109  40.0833463  49.9319057  65.0063141
  39.8038103  50.7545376  65.6645205  40.8864046  50.2543360  64.3435653
  38.8636335  49.5096908  64.1665711  38.6485427  48.2947669  64.0050633
  38.1952022  50.4339973  63.6535145  41.9541721  49.2676941  66.5436462
  42.9904772  49.1397639  65.8742026  41.9482778  49.7816419  67.7774520
  41.0612531  49.8437863  68.2564349  43.1283738  50.3619797  68.4230491
  44.0289706  50.0489401  67.8948154  43.0550323  51.8991456  68.4018881
  42.1686662  52.1904377  68.9654512  43.9453510  52.2743959  68.9064868
  42.9799286  52.4937890  66.9855832  43.7768108  52.0974615  66.3562946
  42.0134285  52.2337752  66.5538745  43.1026686  54.0207651  67.0275430
  42.1931444  54.7395188  67.4359153  44.2274276  54.5766847  66.6410827
  44.3239758  55.5818246  66.6628448  44.9909671  53.9966489  66.3238016
  43.3458098  49.8273863  69.8462485  44.3199342  49.1145774  70.0810507
  42.4701861  50.1367794  70.8044786  41.5856070  50.5443868  70.5371299
  42.7805552  50.0255460  72.2320108  43.7242132  50.5298804  72.4399903
  41.6850285  50.6678121  73.0841079  40.7874928  50.0542122  73.0064926
  42.0135460  50.7003810  74.1229128  41.2763835  52.0863628  72.7118445
  42.1374468  52.9539145  72.0183108  43.1335029  52.6067909  71.7435793
  41.7288623  54.2527281  71.6793492  42.4021354  54.9165445  71.1369916
  40.4461014  54.6965045  72.0418861  40.1177088  55.7001301  71.7717125
  39.5863092  53.8441435  72.7538217  38.5975036  54.1964131  73.0475387
  39.9947368  52.5464587  73.0864823  39.3226305  51.8877063  73.6364081
  43.0542745  48.5934565  72.6891668  44.0168783  48.3628863  73.4178932
  42.2846200  47.6031790  72.2271674  41.4424331  47.8165263  71.7120911
  42.5781088  46.2003535  72.5275089  42.7586282  46.0824073  73.5959660
  41.4003129  45.3058984  72.1283951  41.0832181  45.5422265  71.1126691
  41.7016372  44.2596597  72.1802435  40.1852439  45.4473062  73.0021394
  38.9262848  45.6991673  72.5696499  38.7758746  45.8117720  71.4959662
  38.0705567  45.7592359  73.6520593  37.0796776  45.9356323  73.5675464
  38.7474609  45.5629759  74.8295446  38.3310775  45.5632700  76.1797826
  37.2732986  45.7396916  76.3749181  39.2844131  45.3404491  77.1791380
  39.0021147  45.3440164  78.2319413  40.6242791  45.1082012  76.8351396
  41.3819814  44.9294188  77.5980443  41.0294393  45.0996894  75.4856135
  42.0856738  44.9067906  75.2978384  40.1020247  45.3435425  74.4592258
  43.8706630  45.7208137  71.8643941  44.5877932  44.8951751  72.4412086
  44.2212956  46.2549363  70.6964433  43.5680429  46.8529053  70.2108578
  45.5025267  45.9629926  70.0551566  45.6471995  44.8835428  70.0109188
  45.5527851  46.5215371  68.6322767  45.4563429  47.6061595  68.6811906
  46.5152377  46.2623987  68.1911053  44.5071513  45.9892774  67.8324414
  44.5630489  46.3562176  66.9470996  46.6778280  46.5199130  70.8647495
  47.6759734  45.8313960  71.0366479  46.5287716  47.7340414  71.3992629
  45.7187906  48.2832993  71.1495717  47.5238624  48.3312142  72.2878490
  48.5079896  48.2893631  71.8211142  47.1781433  49.7994942  72.5728354
  46.2383921  49.7596777  73.1236362  47.9611581  50.1956086  73.2194273
  47.0168527  50.7032896  71.3605495  47.5857381  50.3898177  70.1043529
  48.1402698  49.4586475  69.9880941  47.4426905  51.2625737  69.0138116
  47.8689072  51.0178273  68.0409086  46.7347634  52.4596157  69.1876527
  46.6093096  53.3238190  68.1254540  47.0411991  53.0050930  67.3295364
  46.1600484  52.7869622  70.4320377  45.6065121  53.7180978  70.5532172
  46.3021086  51.9114468  71.5144913  45.8605596  52.1613933  72.4791992
  47.6403879  47.5516387  73.5976207  48.7513681  47.2022688  74.0004574
  46.5116705  47.1926791  74.2132472  45.6431454  47.5391519  73.8315141
  46.4619312  46.4004880  75.4363422  47.0058939  46.8987642  76.2387913
  45.0021230  46.2403037  75.8617340  44.5932392  47.2345464  76.0417192
  44.4027930  45.7329188  75.1057816  44.8304431  45.4738120  77.1264345
  44.8471309  45.9968887  78.3735337  44.9580363  47.0778685  78.4588710
  44.7124191  44.9866804  79.3068664  44.6995704  45.1512255  80.3032897
  44.6068282  43.7562795  78.6983326  44.4709713  42.4512219  79.2076541
  44.4323696  42.3354658  80.2908019  44.3941051  41.3896634  78.3067933
  44.2932836  40.3655492  78.6661328  44.4453408  41.6234353  76.9247399
  44.3836897  40.8026846  76.2101303  44.5781149  42.9275933  76.4210475
  44.6171627  43.0317627  75.3367391  44.6674917  44.0228462  77.2998591
  47.1528500  45.0385587  75.2570328  48.0036381  44.6823817  76.0698375
  46.8670246  44.3263434  74.1716172  46.1669663  44.6684217  73.5289663
  47.4977698  43.0355310  73.8884690  47.3410188  42.3437045  74.7160584
  46.8669412  42.4374228  72.6227554  46.7800619  43.2583296  71.9109526
  47.5061705  41.6601897  72.2039539  45.4850849  41.8532714  72.8610606
  45.1715984  41.3056964  73.8988683  44.6291941  41.9036125  71.8732921
  43.7005229  41.5253412  71.9940423  44.9009515  42.3205229  70.9944096
  49.0203456  43.1356121  73.7040436  49.7404503  42.1838547  73.9942588
  49.5121737  44.2668842  73.1975709  48.8667484  45.0128402  72.9806027
  50.9268225  44.4452238  72.8443250  51.4156600  43.4835640  72.6882878
  50.9905123  45.2466484  71.5347712  50.2372101  44.8455416  70.8567238
  50.7559638  46.2862220  71.7636246  52.3655122  45.1690013  70.8716111
  53.0974369  45.6555098  71.5163565  52.6367557  44.1214247  70.7407970
  52.3449182  45.8651251  69.5068853  51.3148916  46.1288188  69.2668649
  52.9462452  46.7720313  69.5703389  52.8791345  45.0197109  68.4270108
  53.3415019  44.1749083  68.7313532  52.8048100  45.2653165  67.1335272
  52.2508244  46.3448890  66.6603537  51.8598770  47.0274855  67.2938536
  52.2147616  46.4944188  65.6621353  53.2919453  44.4258220  66.2618891
  53.7333509  43.5740481  66.5777094  53.2254114  44.6315722  65.2753097
  51.7509332  45.0920758  73.9566761  52.9221315  44.7533147  74.1024891
  51.1419005  46.0179244  74.6998581  50.1618707  46.1960172  74.5327536
  51.8428547  46.8548831  75.6745977  52.8784571  46.5333563  75.7852660
  51.8305817  48.3057385  75.1731847  50.8072413  48.6800978  75.2001796
  52.4614801  48.9282090  75.8076907  52.3240110  48.4944444  73.7525198
  53.6557171  48.1951415  73.4160742  54.3247830  47.7975055  74.1791839
  54.1271143  48.4047697  72.1073104  55.1608875  48.1736669  71.8503955
  53.2549193  48.9163994  71.1262493  53.6191529  49.0898911  70.1136613
  51.9176672  49.2030265  71.4508810  51.2364270  49.5911017  70.6936429
  51.4611882  48.9861753  72.7611533  50.4240978  49.2002874  73.0194158
  51.2818659  46.7538532  77.1026543  51.8625544  47.3109663  78.0275580
  50.1704118  46.0445726  77.2967286  49.7977027  45.5301959  76.5114873
  49.4651840  45.9685690  78.5700279  48.9496413  45.0093682  78.6174499
  50.2017530  46.0245987  79.3715428  48.4400575  47.0962719  78.7539508
  48.0106094  47.7178647  77.7710842  48.0033246  47.3604600  80.0005650
  48.4338256  46.7121161  81.2208011  49.5186296  46.6097955  81.1919723
  47.9771863  45.7233642  81.2649493  47.9607934  47.6225101  82.3507867
  48.6974569  48.3957780  82.5686922  47.7552249  47.0517330  83.2563564
  46.6782264  48.2198518  81.7808062  46.4642541  49.1996323  82.2078250
  45.8204857  47.5639678  81.9297913  46.9773235  48.3580525  80.2827707
  46.0883263  48.0912113  79.7113006  47.4111046  49.7817586  79.9163120
  48.5950117  50.1235120  79.9426449  46.4197273  50.6307340  79.6131722
  45.4640389  50.3139659  79.6932784  46.6579188  51.9894581  79.1734464
  47.5742590  52.3321381  79.6540609  46.8029384  51.9623015  78.0934782
  45.5310493  52.9663464  79.4988941  44.5214504  52.6149114  80.1127422
  45.7341053  54.2052208  79.0939616  46.6095116  54.3682502  78.6173228
  44.8518132  55.3352745  79.3177569  43.9436072  55.0250564  79.8345023
  45.5949776  56.3544602  80.1987116  45.6959266  55.8969235  81.1828704
  46.5815980  56.4730487  79.7508088  44.9258353  57.7367381  80.3409707
  44.7795603  58.1478914  79.3421427  43.5820074  57.6529452  81.0577539
  43.7275467  57.2422855  82.0568914  43.1479976  58.6498329  81.1348973
  42.9088212  57.0067529  80.4944101  45.8257773  58.6568526  81.1480561
  46.7828785  58.7684083  80.6385347  45.3519554  59.6333820  81.2479777
  45.9891204  58.2298835  82.1375586  44.4172778  55.9447908  77.9846485
  45.2483070  56.2391240  77.1258468  43.1248576  56.2201482  77.8450981
  42.4871911  55.8126017  78.5139677  42.5691821  57.0205503  76.7579057
  43.3404332  57.2694931  76.0290035  41.4320054  56.2837680  76.0365523
  40.6267606  56.1051743  76.7491422  40.8969022  57.1050380  74.8557741
  41.7015232  57.2836514  74.1424836  40.0927185  56.5562632  74.3656360
  40.5158548  58.0593593  75.2193335  41.8816020  54.9140550  75.5223847
  42.2098290  54.3003177  76.3612504  41.0491246  54.4236141  75.0178566
  42.7064952  55.0413944  74.8213593  42.0840789  58.3515002  77.3169587
  41.3105867  58.3803677  78.2779361  42.5185130  59.4569318  76.7226954
  43.2746579  59.3678894  76.0590571  42.0481776  60.7972111  77.0603847
  41.4071415  60.7513660  77.9407654  43.2137988  61.7748615  77.3232989
  43.8024951  61.9003644  76.4145712  42.6347690  63.1371355  77.7520692
  42.0462860  63.0125096  78.6610559  43.4498458  63.8358832  77.9404893
  41.9980439  63.5279197  76.9583639  44.1642330  61.2176183  78.4086675
  43.5784222  61.1014256  79.3204930  44.5031844  60.2392571  78.0680492
  45.3858360  62.1136811  78.6938192  45.0476626  63.0921328  79.0349508
  46.0023893  61.6534122  79.4659033  45.9724238  62.2299662  77.7825057
  41.1002091  61.2854434  75.9589411  41.5250791  61.6287923  74.8576478
  39.8148213  61.3609889  76.2800161  39.5105408  60.8715792  77.1094682
  38.8118256  62.0478519  75.4759676  39.1172209  62.0583766  74.4296780
  37.4671327  61.3305509  75.5849048  37.3370974  61.1284639  76.6480844
  36.6811623  62.0049487  75.2449957  37.3870002  60.0365951  74.8140546
  37.3447114  60.0517831  73.4110429  37.4052797  61.0069324  72.8893910
  37.2263435  58.8604272  72.6809516  37.2118954  58.8749864  71.5911438
  37.1370716  57.6360389  73.3697314  37.0012984  56.4757574  72.6523065
  36.9795703  56.6216446  71.7037052  37.1752756  57.6047244  74.7750346
  37.1051237  56.6546731  75.3047342  37.3047224  58.8067828  75.4985144
  37.3412824  58.7860988  76.5877047  38.7160831  63.5105387  75.9289376
  37.9335342  63.8392364  76.8214913  39.4691396  64.4042765  75.2873828
  39.9997000  64.0859194  74.4891011  39.6097983  65.8134468  75.7044023
  40.0030775  65.8838929  76.7185364  40.5895124  66.4895596  74.7544408
  40.2741228  66.3362118  73.7223976  40.6277104  67.5579080  74.9672143
  41.9903737  65.9843688  74.8523368  42.5907474  65.1351607  73.9850249
  42.0016535  64.7690320  73.1441812  43.8990301  64.9131692  74.3922757
  44.5442024  64.3141156  73.8973141  44.1819107  65.6158937  75.5422456
  45.3550460  65.7323467  76.3251978  46.2356107  65.1759977  76.0039807
  45.3172458  66.5481435  77.4570713  46.2062355  66.6674274  78.0764004
  44.1471642  67.2223866  77.8147617  44.1052084  67.8517000  78.7037520
  42.9814411  67.1062766  77.0304166  42.1146842  67.6842985  77.3509220
  42.9806152  66.2959450  75.8738216  38.2938437  66.6066862  75.7343962
  38.1705591  67.5813376  76.4842179  37.2833558  66.1860598  74.9624133
  37.4853011  65.4844474  74.2645183  35.9611548  66.8169029  74.9507731
  36.0004972  67.7799061  75.4598666  35.5085297  67.0445450  73.5106607
  35.3718228  66.0599434  73.0634805  34.5468749  67.5547353  73.5656686
  36.4697429  67.8628986  72.6537759  37.3467606  68.7979667  73.2341436
  37.3332885  68.9414149  74.3145790  38.2327828  69.5423302  72.4377715
  38.9147523  70.2621061  72.8904769  38.2369081  69.3502563  71.0483700
  39.0912267  70.0706633  70.2791265  39.6379134  70.6730632  70.7888792
  37.3570015  68.4178699  70.4590322  37.3561575  68.2731091  69.3786877
  36.4837913  67.6778985  71.2650770  35.8083314  66.9515680  70.8130837
  34.9329767  66.0859297  75.8210127  33.7606777  66.4644383  75.8399448
  35.3726733  65.1033026  76.5807131  36.3687448  64.9387070  76.5515704
  34.5596596  64.2572290  77.4368751  35.1423490  64.0141341  78.3254003
  33.6730876  64.8208607  77.7274070  34.1243149  62.9619194  76.7590647
  34.4613641  62.6814413  75.6154931  33.3619682  62.1576758  77.5146477
  33.1772634  62.4404039  78.4665135  32.8477471  60.8633497  77.0627567
  32.5595726  60.9160719  76.0128639  33.9458151  59.7920640  77.2191405
  33.5472166  58.8318158  76.8918151  34.8138663  60.0503291  76.6126042
  34.4464342  59.5939013  78.6254072  35.5010277  60.3752431  79.1365145
  35.9429648  61.1454605  78.5044095  35.9822383  60.1746226  80.4345857
  36.7995022  60.7876476  80.8145602  35.4104394  59.1805470  81.2499706
  35.7814010  59.0189137  82.2620784  34.3552018  58.3934344  80.7533990
  33.9099303  57.6214484  81.3809905  33.8744629  58.6024221  79.4469751
  33.0541297  57.9951076  79.0644540  31.5787870  60.5034809  77.8378829
  31.2564995  61.1253665  78.8540222  30.8418908  59.5042517  77.3577517
  31.0423969  59.1519756  76.4326581  29.6998582  58.9429960  78.0817341
  29.1009949  59.7340028  78.5331433  28.8136218  58.1001758  77.1426195
  29.4302148  57.3493883  76.6484217  27.6994534  57.4016230  77.9458995
  27.0821186  58.1518374  78.4400419  27.0808383  56.8098269  77.2712192
  28.1461804  56.7483854  78.6954425  28.2138652  58.9919344  76.0371826
  27.5274150  59.6881915  76.5189635  29.0364962  59.5469828  75.5862957
  27.4698699  58.2118131  74.9514926  26.6467525  57.6568388  75.4015828
  27.0762279  58.9063993  74.2094042  28.1558337  57.5156280  74.4689163
  30.2315003  58.1302388  79.2612669  31.0350520  57.2228793  79.0674259
  29.7879748  58.4478780  80.4769969  29.0712212  59.1559449  80.5477427
  30.3334095  57.8830942  81.7177508  31.3795131  58.1599825  81.8485146
  29.5217975  58.4571036  82.8936726  29.6306190  59.5416131  82.8838650
  28.4743304  58.1961904  82.7425533  29.9959913  57.9073303  84.2479228
  29.8083734  56.8336054  84.2518145  31.0652701  58.0891939  84.3559529
  29.2676978  58.5371425  85.4444625  28.5257984  59.5009678  85.3334354
  29.4810817  58.0163119  86.6269293  29.0193256  58.4043275  87.4370692
  30.1064095  57.2290429  86.7232315  30.3256481  56.3470973  81.7225729
  31.3039402  55.7209074  82.1380039  29.2509322  55.7534841  81.2281406
  28.5090562  56.3627969  80.9143616  29.0296314  54.3068863  81.1768493
  29.1984527  53.8591137  82.1561849  27.5734035  54.0375872  80.7573233
  27.4390346  54.5119541  79.7852017  27.4773776  52.9571255  80.6501713
  26.5002979  54.5533793  81.7320565  25.6290332  53.9120880  81.5988500
  26.9068534  54.4097599  82.7331486  26.0849609  56.0284513  81.5527583
  25.0360675  56.4119595  82.1140381  26.7902193  56.8022112  80.8670943
  30.0096157  53.5673490  80.2459280  30.1241954  52.3414996  80.3277059
  30.7564252  54.2829612  79.3966108  30.5590737  55.2672430  79.2855198
  31.8059695  53.6861151  78.5644297  31.4491521  52.7507600  78.1332786
  32.1893080  54.6365871  77.4239103  32.5620542  55.5467024  77.8938567
  32.9958184  54.1590667  76.8674793  31.0415307  54.9896804  76.4614664
  30.2247244  55.4485153  77.0186011  31.5540763  55.9732762  75.4042856
  32.3706478  55.5149448  74.8463946  30.7443478  56.2264919  74.7199448
  31.9123637  56.8790896  75.8933997  30.4829278  53.7591206  75.7481751
  30.0995649  53.0538811  76.4855824  29.6757432  54.0606557  75.0806192
  31.2744560  53.2838145  75.1688079  33.0553296  53.3061734  79.3701888
  33.8176360  52.4403916  78.9175600  33.2731729  53.8856029  80.5550798
  32.6701300  54.6552329  80.8082761  34.4198286  53.5862530  81.4206868
  35.2908569  53.3440606  80.8117930  34.7580050  54.8047642  82.3012565
  34.6551352  55.7203681  81.7188591  34.0139759  54.7959008  83.0977753
  36.1617886  54.7439990  82.9132405  37.0476513  54.0689228  82.3480676
  36.3979221  55.4251050  83.9433757  34.2248757  52.2799742  82.2175707
  34.4432978  52.1990392  83.4260282  33.7709963  51.2338801  81.5355109
  33.5720604  51.3958448  80.5586325  33.4338417  49.9250476  82.1063060
  33.2796079  49.9994309  83.1827717  32.1318895  49.4347447  81.4568620
  31.7980108  48.4865419  81.8782120  31.3321787  50.1706402  81.5406499
  32.3641142  49.1410373  79.6710827  31.1163604  48.7478694  79.4314415
  34.5682289  48.8951896  81.9944835  34.4287462  47.7750280  82.4697272
  35.6982036  49.2686262  81.3747534  35.7223153  50.1890751  80.9596730
  36.8306425  48.3755168  81.1447995  36.5763247  47.3560935  81.4349680
  37.1884307  48.3860596  79.6476664  37.2929623  49.4237979  79.3310094
  38.1339348  47.8644385  79.4992298  36.1263612  47.7205238  78.7878614
  35.7554118  46.5721886  78.9943388  35.6274850  48.4177210  77.8009067
  34.9194940  48.0108666  77.2065012  35.9523843  49.3599599  77.6374223
  38.0353117  48.6747043  82.0493728  39.1280822  48.1719047  81.7776484
  37.8634488  49.4609016  83.1210378  36.9421027  49.8449710  83.2750232
  38.9540574  49.8626349  84.0390472  39.7073798  50.4271067  83.4895237
  38.4094440  50.7477063  85.1796111  37.7566379  50.1257231  85.7920490
  39.2621894  51.0744847  85.7747088  37.6319282  51.9724996  84.6862841
  38.2969295  52.5714218  84.0640571  36.7903514  51.6244185  84.0873767
  37.1145978  52.8240383  85.8446018  36.1308562  53.2157398  85.5859103
  37.0342819  52.2010109  86.7353800  38.0116794  53.9569326  86.1396377
  38.8177272  54.0313929  85.5356163  37.8595174  54.8492245  87.0988848
  36.9051246  54.7564320  87.9782971  36.2563195  53.9835808  87.9352520
  36.8175445  55.4576876  88.6998717  38.6626343  55.8652017  87.1939130
  39.4131259  55.9758662  86.5271178  38.5330207  56.5399711  87.9341733
  39.6873280  48.6477965  84.5973147  40.8979801  48.5368630  84.4355485
  38.9510277  47.6808006  85.1420062  37.9530547  47.8261902  85.1968789
  39.5068218  46.4362704  85.6990587  40.2982424  46.6611052  86.4140426
  38.3905034  45.6581164  86.4275054  37.6326788  45.4102336  85.6842994
  38.8354863  44.7403639  86.8119799  37.7406478  46.4333633  87.5811708
  37.2369209  47.2731340  87.1024796  37.0049338  45.8126395  88.0925669
  38.7590877  46.9612460  88.5984878  38.5819474  48.1247624  89.0457560
  39.7421930  46.2381342  88.8728020  40.1399529  45.5233997  84.6371702
  40.9628333  44.6607606  84.9369814  39.7869079  45.7251984  83.3659541
  39.0129874  46.3474952  83.1818538  40.3830521  45.0001097  82.2338810
  40.7781893  44.0443828  82.5781946  39.3365135  44.7340392  81.1451366
  38.9467448  45.6939181  80.8062971  39.8304392  44.2294748  80.3147438
  38.1771175  43.8623000  81.6579188  38.5904265  42.9262357  82.0334986
  37.6816830  44.3923941  82.4713356  37.1585115  43.5628202  80.5466225
  36.2777221  43.0949722  80.9864263  36.8706503  44.4973302  80.0650350
  37.7113502  42.6614795  79.5305401  38.6117235  42.2574849  79.7455185
  37.1418706  42.3548228  78.3794708  35.9802838  42.8526850  78.0346516
  35.5012196  43.4871349  78.6576051  35.5691791  42.5997646  77.1474516
  37.7262407  41.5229924  77.5461426  38.6179663  41.1146346  77.7873260
  37.2808082  41.2960712  76.6685349  41.6095110  45.7068840  81.6733689
  42.2629810  45.1515732  80.8005682  41.9365626  46.9096051  82.1541412
  41.2961507  47.3387640  82.8066706  43.1485634  47.6339471  81.7988543
  43.5146491  48.1012501  82.7130251  43.8695802  46.8913485  81.4571211
  42.9899480  48.7078140  80.7194952  43.9764969  49.0639758  80.0904038
  41.7734812  49.2399931  80.5096336  40.9620693  48.7559507  80.8665833
  41.5635914  50.4299747  79.6799409  42.5191221  50.9072436  79.4625135
  40.8401795  50.0988269  78.3548513  39.8932323  49.6086588  78.5809633
  40.5722382  51.3882607  77.5472785  41.5188165  51.8787762  77.3203760
  40.0623385  51.1359306  76.6175298  39.9462423  52.0611487  78.1333246
  41.6880633  49.1032959  77.5330848  42.6263314  49.6049224  77.2961786
  41.8870169  48.2473634  78.1779851  41.0270426  48.6249413  76.2424410
  40.8281916  49.4803289  75.5967861  41.6915184  47.9297663  75.7293106
  40.0888753  48.1227716  76.4785928  40.8367084  51.4715045  80.5143928
  39.6453085  51.3390963  80.7876185  41.5697482  52.5031649  80.9274245
  42.5551257  52.4767052  80.7073552  41.0687013  53.6187859  81.7161975
  40.1722671  53.3322596  82.2661135  42.1553137  54.0287171  82.7262385
  42.4166217  53.1383496  83.2981329  43.0173801  54.3506287  82.1420172
  41.7400000  55.1553701  83.6918112  41.3801219  55.9973768  83.1005301
  40.6472363  54.7055039  84.6508403  41.0065617  53.8637618  85.2428321
  40.3835098  55.5292526  85.3141556  39.7678869  54.4008440  84.0833657
  42.9453657  55.5929118  84.5300549  43.7340086  55.9564081  83.8712588
  42.6452670  56.3896342  85.2106983  43.3156495  54.7444431  85.1054589
  40.6694802  54.7772999  80.7944861  41.4315187  55.1347779  79.9014206
  39.5221393  55.4035477  81.0395341  38.8814757  54.9790597  81.6948656
  39.0959047  56.6128268  80.3383542  39.7804163  56.8129180  79.5140323
  37.6711357  56.4596944  79.7695144  37.0041185  56.4573017  80.6315942
  37.4839465  57.3494909  79.1684134  37.4148487  55.2064999  78.9213202
  37.5001478  54.3200678  79.5498607  36.0087554  55.2711190  78.3188131
  35.9228335  56.1571052  77.6897306  35.8294452  54.3801216  77.7170887
  35.2715605  55.3221993  79.1200839  38.4096255  55.0508236  77.7713410
  39.4206523  54.9781630  78.1721460  38.1766192  54.1469081  77.2085390
  38.3420137  55.9162257  77.1120938  39.2090609  57.8390267  81.2424131
  38.8379859  57.8121363  82.4214374  39.7137833  58.9499516  80.6846791
  40.1575320  58.8489740  79.7830196  39.7437173  60.2606703  81.3282142
  38.9996325  60.2981276  82.1238484  41.1333329  60.5312375  81.9399177
  41.8649790  60.3565205  81.1510786  41.1528515  61.5827182  82.2264613
  41.4808458  59.6544009  83.1698515  41.3636402  58.6066810  82.8930002
  42.5179061  59.8423910  83.4478222  40.5680400  59.9734332  84.3583220
  40.7100469  61.0168388  84.6398138  39.5322170  59.8165814  84.0573773
  40.8914364  59.0799588  85.5455642  40.9577469  58.0463296  85.2059846
  41.8479590  59.3843412  85.9704347  39.8321952  59.1937894  86.5798271
  38.9458524  58.9113766  86.1864580  40.0593736  58.5960016  87.3615813
  39.7708790  60.1514160  86.8949314  39.3364215  61.3635480  80.3505528
  39.5016177  61.2270382  79.1470673  38.8142500  62.4645404  80.8804421
  38.5827876  62.4465034  81.8633964  38.4498756  63.6481970  80.1044103
  38.3381252  63.3299403  79.0679144  37.0954649  64.1583137  80.6088531
  37.1934175  64.4891543  81.6428017  36.7679159  64.9937382  79.9900818
  36.3604719  63.3553458  80.5529327  39.5263226  64.7461964  80.1105113
  39.3617010  65.7981132  79.4992079  40.6175344  64.5259256  80.8477185
  40.6059538  63.6899933  81.4144482  41.7738740  65.4107618  80.9436227
  41.9982237  65.8477427  79.9705789  41.4669382  66.5486264  81.9351666
  42.3182222  67.2191657  82.0526054  40.5924087  67.1227249  81.6290471
  41.0935861  65.9083057  83.6022043  40.8891463  67.0960035  84.1647669
  43.0025812  64.6068717  81.3635136  42.8855878  63.4359988  81.7427751
  44.1746062  65.2322284  81.3339809  44.2424342  66.1362489  80.8887331
  45.3877856  64.6337722  81.8675593  45.5721091  63.6673038  81.3984506
  46.5755700  65.5521223  81.5776279  46.6048942  65.7864875  80.5135263
  46.5161011  66.4770118  82.1513378  47.8993503  64.9196858  81.9160402
  48.5952771  65.2852804  83.0832469  48.1538380  66.0088024  83.7686280
  49.8433198  64.7275945  83.3658366  50.3771550  65.0191816  84.2703240
  50.4130224  63.7887580  82.4833906  51.3934765  63.3621009  82.6949878
  49.7149670  63.4035540  81.3301818  50.1441380  62.6636885  80.6545254
  48.4639009  63.9705862  81.0460090  47.9236581  63.6759078  80.1463411
  45.2341082  64.3707975  83.3764389  44.7678634  65.2495860  84.0996972
  45.5711619  63.1721090  83.8727196  46.0036884  62.0141336  83.1245674
  47.0803676  62.0831094  82.9693113  45.4971620  62.0148959  82.1594097
  45.6121497  60.8199855  83.9848446  46.2811496  59.9776389  83.8088035
  44.5850429  60.5158813  83.7831678  45.7516644  61.3522314  85.3989153
  46.7765025  61.2396309  85.7526482  45.0710858  60.8662345  86.0980001
  45.4041821  62.8335596  85.2785628  44.3583600  62.9875303  85.5443585
  46.2922974  63.6910917  86.1853505  47.4797589  63.8549817  85.9254809
  45.7268573  64.1890933  87.2913708  44.7392544  64.0455859  87.4467592
  46.4811110  64.9910654  88.2754964  47.1795053  65.6404663  87.7476489
  45.5246465  65.8633291  89.0935970  46.0873815  66.3282608  89.9030833
  44.8827268  66.9480602  88.2320062  44.3193964  66.4838509  87.4225198
  44.2099931  67.5484875  88.8443912  45.6598588  67.5873578  87.8131207
  44.4773118  65.0757218  89.6275472  43.8854643  65.6335957  90.1375409
  47.3136127  64.1268910  89.2205751  48.4146215  64.5023418  89.6016281
  46.8072976  62.9546117  89.5745271  45.9001105  62.7107174  89.2035467
  47.4288666  62.0480332  90.5325002  48.2428515  62.5511348  91.0544356
  46.3856039  61.5971825  91.5680452  45.5393438  61.1556225  91.0417679
  46.8463116  60.8456725  92.2092013  45.8753960  62.7350709  92.4413418
  46.4006789  63.8269540  92.4880113  44.8026529  62.4979031  93.1694433
  44.4288859  63.2238969  93.7638598  44.3593446  61.5912660  93.1295975
  48.0793737  60.8782609  89.7948965  47.4997936  59.8011325  89.6876289
  49.2799704  61.1082628  89.2888020  49.6150199  62.0610303  89.2801241
  50.1141076  60.0747140  88.6781555  49.5261042  59.1860688  88.4486759
  50.7818711  60.5960009  87.3890674  51.3805320  61.4762913  87.6231494
  51.6829365  59.5093431  86.7962826  51.0848619  58.6288411  86.5614983
  52.1522540  59.8824333  85.8859829  52.4540978  59.2420324  87.5187467
  49.7016122  61.0408924  86.3734600  49.1086600  60.1614321  86.1223465
  49.0685868  61.7750631  86.8718291  50.2772020  61.6493662  85.0941938
  50.9100136  60.9155744  84.5949956  49.4625454  61.9376872  84.4298861
  50.8699427  62.5292047  85.3444788  51.1344013  59.6157726  89.7057538
  51.9121973  60.4187146  90.2223895  51.1420586  58.3202132  90.0040245
  50.3964541  57.7496154  89.6317459  52.1179722  57.6923000  90.8888225
  52.6648308  58.4589561  91.4377153  51.4459138  56.7450452  91.9030034
  50.9338426  55.9534258  91.3559924  52.4745241  56.1298935  92.8401960
  52.9867211  56.9209310  93.3879321  51.9736320  55.4662432  93.5450193
  53.2011943  55.5611681  92.2600207  50.4056535  57.4941160  92.7438140
  49.6385239  57.9080232  92.0893715  49.9453490  56.8048851  93.4517548
  50.8924042  58.3027950  93.2889864  53.1346279  56.9634310  90.0228581
  52.8012051  56.0204329  89.3100827  54.3921958  57.3963248  90.0852679
  54.6004193  58.2634204  90.5594910  55.4863422  56.6875497  89.4255471
  55.1705793  56.4405258  88.4119534  56.7519661  57.5526645  89.3479174
  57.5946401  56.9217643  89.0651352  56.5796104  58.6701469  88.3109952
  55.7373504  59.3017814  88.5933702  57.4872663  59.2723448  88.2707770
  56.3915825  58.2313937  87.3310760  57.0136631  58.1722560  90.5850948
  57.8077227  58.7069981  90.5135370  55.7650265  55.3783123  90.1626472
  55.9663843  55.3657063  91.3725026  55.7784848  54.2812080  89.4213983
  55.4328187  54.3250455  88.4734043  56.2027652  52.9921884  89.9410632
  55.8666968  52.8820924  90.9720997  55.6062362  51.8497076  89.1057855
  55.9655476  51.9798321  88.0849711  56.0019277  50.9196760  89.5139148
  54.0676206  51.7957607  89.1049344  53.6673132  52.7545871  88.7755306
  53.6069840  50.7008425  88.1544913  54.0065434  49.7415807  88.4835324
  52.5178462  50.6577669  88.1495803  53.9660528  50.9175664  87.1484095
  53.4878229  51.4938581  90.4896967  53.7945645  52.2708691  91.1898844
  52.3997355  51.4675696  90.4307379  53.8558739  50.5279317  90.8355630
  57.7316848  52.9737528  89.9550580  58.3773544  52.4233320  89.0634892
  58.3249387  53.6203324  90.9659841  57.8297597  54.3031307  91.5215771
  59.7245237  53.3815486  91.2576499  60.3263755  53.6067456  90.3772182
  60.1968228  54.2676119  92.4125743  59.5110388  54.2573936  93.2597432
  61.2002870  54.0148461  92.7550198  60.2767158  56.0005461  91.8471929
  60.6949571  56.5052089  93.0044690  59.8534281  51.8934232  91.5872809
  59.2212482  51.4119813  92.5263215  60.6847059  51.1703224  90.8447296
  60.9508307  51.4482383  89.9108989  61.2013756  49.9208204  91.3625066
  60.3712792  49.2539039  91.5954477  62.1141950  49.2293114  90.3387028
  62.8229564  49.9244562  89.8886693  62.6590484  48.4465025  90.8663817
  61.3900952  48.5597632  89.2051929  60.1971933  47.8677012  89.2888418
  59.8899118  47.3828356  88.0763013  58.9690898  46.8169830  87.9348921
  60.8598394  47.7205734  87.2084835  60.9121891  47.4865333  86.2273696
  61.8025247  48.4630777  87.8992048  62.6795067  48.8492269  87.3796929
  61.9522707  50.2671050  92.6480417  63.0659648  50.7804660  92.6100556
  61.3161323  50.0083118  93.7967270  60.3083534  50.0123461  93.8635455
  62.0840625  49.7532861  95.0004588  62.7547470  50.5932122  95.1815820
  61.1808662  49.5760399  96.2234151  61.7990037  49.2672927  97.0664337
  60.7132572  50.5346279  96.4482504  60.1871077  48.6136305  95.9957697
  59.6398224  48.5271693  96.7797359  62.8868344  48.4944459  94.6785993
  62.3678734  47.3806231  94.7606803  64.1347096  48.6984698  94.2288865
  64.3897526  49.5602412  93.7680149  65.1395010  47.6610681  94.3509720
  64.7733546  46.7248091  93.9297178  66.4574339  48.0631859  93.6458365
  66.8778055  48.9465115  94.1265901  67.4557853  46.8987881  93.7512034
  67.0362788  46.0151712  93.2702292  68.3878704  47.1728265  93.2570162
  67.6520291  46.6816500  94.8011741  66.2095671  48.4426589  92.1646574
  65.8566582  47.5464283  91.6544352  65.4263103  49.2005509  92.1502319
  67.4554589  48.9814077  91.4486565  68.2390484  48.2238446  91.4622708
  67.2047927  49.2256080  90.4163620  67.8087020  49.8779665  91.9580694
  65.2988282  47.4746176  95.8679846  66.0050023  48.2401361  96.5133323
  64.5132617  46.5672460  96.4071273  63.6315815  46.3491261  95.9653545
  64.8365442  45.9093926  97.6603900  65.3500283  46.5798867  98.3494988
  63.5494871  45.4208673  98.3226135  63.0286051  44.7411916  97.6482080
  63.7920425  44.8985565  99.2480640  62.9081732  46.2737876  98.5447460
  65.8168584  44.7760990  97.3572337  65.6551939  44.1182760  96.3033862
  66.7213969  44.5687401  98.2012322  45.2677193  60.1366218  69.1887809
  47.5694252  58.5967792  67.0305925  82.0618045  40.1200640  29.2665129
  82.5016521  40.9108819  28.9452292  81.8875904  41.4803851  27.8078101
  82.2281796  40.9552932  26.9150483  82.2505015  42.4889743  27.6103023
  80.3227821  41.6560909  27.9014447  80.0827975  42.4113990  27.1534968
  79.7764223  40.3895044  27.6184756  78.6205791  40.2609356  28.3884176
  77.8798495  40.9367817  27.9621562  78.2042312  38.8643020  28.3912485
  78.3027783  37.8151203  29.2819506  78.8502590  37.9365170  30.2050095
  77.7647032  36.6288941  28.8941408  77.3800801  36.9112978  27.6032360
  76.7069569  36.2108002  26.5452808  76.4124336  34.9093247  26.5765665
  75.8728573  34.6118834  25.7771474  76.6825131  34.2786309  27.3186328
  76.3425653  36.7675997  25.4453908  76.6147208  38.0688086  25.2985991
  76.2715193  38.5529368  24.3962435  77.3504629  38.8099577  26.1175494
  77.6455914  38.2303428  27.2668165  79.7697911  42.0558965  29.2965040
  80.5524542  42.4070557  29.9690326  79.0808806  40.7896043  29.7770323
  79.7631593  40.1003971  30.2752031  78.2507569  41.0361578  30.4378319
  78.8748775  43.0699480  28.7913602  78.3997021  44.2434922  29.7772995
  79.4729168  45.2716578  29.8674646  77.8737381  43.6473392  31.0357936
  77.1530310  44.9492489  29.0890410  77.1364164  45.3050759  27.7751410
  78.1248668  45.1665581  27.3373413  76.8550201  46.3502426  27.6413438
  76.0546254  44.4595185  26.9311890  76.1220054  44.6576169  25.8610278
  76.1117109  43.0601164  27.2623158  74.7604067  42.5736956  27.0174386
  74.6064940  42.6685659  25.9417567  74.5982387  41.1770568  27.5479878
  75.0776344  40.7971033  28.7742998  75.5760916  41.5407838  29.3779005
  74.8423883  39.5391264  29.1999421  75.3317388  39.0738493  30.5099128
  76.0554323  39.7518515  30.9620276  74.4651355  38.9141817  31.1515379
  75.8463286  38.1228717  30.3729091  74.1667803  38.5659686  28.3631639
  73.8567301  37.4747997  28.7807178  73.8010373  38.9454412  27.1348864
  73.4220230  38.2486499  26.5086188  73.9091960  40.2645844  26.6984512
  73.5205421  40.5102097  25.5543697  74.6266079  44.7783402  27.4663609
  74.7418383  45.6029649  28.1698728  73.9883213  43.5430614  27.9202359
  74.1241685  43.4226878  28.9954493  72.9391379  43.4744425  27.6320613
  73.9606509  45.3678490  26.3850813  72.8704724  46.5296513  26.6576747
  73.4026109  47.8098647  26.1475196  72.3826107  46.5281216  28.0736435
  71.7315061  46.0408160  25.6841605  71.8962613  46.0954353  24.1937021
  72.9422313  45.9214333  23.9412597  71.4684770  46.9925893  23.7448544
  71.1485641  44.9312841  23.5709768  71.3056470  44.9859738  22.4941560
  71.4852841  43.6618233  24.0372879  70.2504535  42.9883805  24.4530487
  69.9992120  42.2857370  23.6581280  70.4543173  42.0524599  25.6678825
  70.5991089  42.2982148  27.0481136  70.6328722  43.2595004  27.5391239
  70.5448713  41.2109530  27.8156584  70.4400662  40.1875541  26.8839226
  70.5090050  38.7584694  26.9735966  70.7869866  38.0754752  28.0765205
  70.8092632  37.0662736  28.0521295  71.2179112  38.6121350  28.8161205
  70.2074697  38.0155723  25.9549704  70.1072337  38.6097379  24.7802832
  69.8148144  37.9949436  23.9415002  70.2377858  39.9451526  24.4899944
  70.4459745  40.6459161  25.5916395  69.6408601  45.2569265  23.8065414
  69.5998943  46.2130800  24.3272202  69.2595485  44.0782472  24.7537676
  69.3105723  44.2966629  25.8206870  68.3058815  43.7220354  24.3653484
  69.0312343  45.2317712  22.5104227  67.9111337  46.2894421  22.0194972
  68.0313296  46.3819626  20.5618560  68.0216470  47.5251478  22.8666030
  66.6872799  45.4490704  22.4906228  66.3125723  44.2895179  21.7259554
  67.1979155  43.6595918  21.6386593  66.0084702  44.6301935  20.7364586
  65.1324724  43.4802542  22.4045513  64.7320821  42.8713098  21.5942647
  65.6062306  42.5689346  23.3458365  64.8099138  42.4787068  24.5429946
  64.0443060  41.7389957  24.3106779  65.6845554  41.9701065  25.6383310
  66.3840705  42.6991066  26.5817040  66.3999551  43.7785453  26.6067763
  67.0549125  42.0109849  27.4852179  66.7215401  40.6395254  27.1187978
  67.0797353  39.3940268  27.5358582  67.8143590  39.2988750  28.6763757
  67.9089042  38.3676596  29.0564812  68.1888586  40.1485175  29.0728736
  66.6797835  38.2718855  27.0143618  65.9294619  38.3757963  25.8721543
  65.5594011  37.4756995  25.4042935  65.5302049  39.4979274  25.3698977
  65.9328422  40.6377509  26.0184457  64.0075473  44.2117874  23.0805430
  64.1087410  45.2808945  22.8886531  64.2928841  43.9392684  24.5455096
  65.1356457  44.5640181  24.8399001  63.4719535  44.2394795  25.1966480
  62.7589879  43.7339420  22.5991198  61.2609478  44.1178070  23.2306929
  60.2299869  43.9929897  22.1849586  61.3952368  45.2168479  24.1800066
  61.1682888  42.8530936  24.2153062  61.0378593  41.5055095  23.6970173
  61.8586464  41.4135482  22.9851089  60.1099662  41.4708656  23.1257572
  61.0927790  40.4334383  24.7411917  61.1383842  39.4280981  24.3242681
  62.2706575  40.5062926  25.4819341  61.8805676  40.0306396  26.8348104
  61.6896719  38.9576895  26.8506526  62.8794354  40.3719078  27.9052028
  63.3460952  41.6361811  28.1088022  62.9098438  42.3140995  27.3893348
  64.2544091  42.0040614  29.0771860  64.6821741  43.4663080  29.1562914
  64.3129672  43.6040826  30.1725736  65.7725027  43.4699321  29.1419967
  64.2394929  44.1640438  28.4448196  64.8208498  41.0319253  30.0092345
  65.6681106  41.1883511  30.9215776  64.3517459  39.7376496  29.7550894
  64.7945527  38.9854701  30.2642919  63.4491965  39.3878415  28.7055258
  63.1545929  38.2086004  28.5704842  59.8863989  40.5348941  25.7023107
  59.3340310  41.4603723  25.5379515  60.5229082  40.7775767  27.0873573
  60.7038846  41.8198132  27.3500295  59.9835009  40.3586770  27.9367334
  59.2066890  39.3306291  25.6490366  57.8208175  39.0395350  26.3624232
  57.1788642  37.8752343  25.7194201  57.0234201  40.2700479  26.5206835
  58.0501066  38.6639287  27.8734839  58.7167732  37.5025821  28.3826848
  59.6224020  37.4205567  27.7815382  58.1001789  36.6251010  28.1900599
  59.0593806  37.6408353  29.8931514  59.2985429  36.6322238  30.2311887
  60.2418687  38.4083044  30.2278173  60.2773454  38.4515011  31.6032098
  60.6522735  37.5198492  32.0257685  61.3274528  39.3880188  32.0087552
  61.4637033  40.7118605  31.6676865  60.7280230  41.1897769  31.0379275
  62.4580462  41.3504181  32.1274174  63.0043779  40.3056064  32.9991761
  64.1245009  40.2088689  33.8861887  65.0816674  41.1278377  34.1072808
  65.8682813  40.6391857  34.5100695  65.2144987  41.9097910  33.4817842
  64.3862809  39.1323307  34.6100088  63.5136429  38.1617821  34.5754789
  63.8597365  37.2746353  35.0852894  62.4617765  37.9867427  33.7399675
  62.2887328  39.1296980  32.9160094  57.9996276  38.1962083  30.8259196
  57.4481621  38.9609027  30.2778629  58.8343299  38.7580433  32.0383154
  58.7056839  39.8313200  31.8994001  58.6178407  38.3563278  33.0287360
  57.0455734  37.1085937  31.2468235  55.8757908  37.3920159  32.2572465
  54.7539884  36.4460966  31.9754364  55.5682512  38.8467391  32.4398193
  56.5678400  36.9845660  33.6320423  56.1818749  37.5375037  34.8781759
  55.3321480  37.0103928  35.3130968  56.0757758  38.6130175  34.7384648
  57.3392355  37.3624309  35.9340106  57.5695936  36.2987311  35.8878478
  58.4931806  38.1507092  35.5813082  59.2277034  38.1616542  36.7495644
  59.7135696  37.1962217  36.8890602  60.2925079  39.2206224  36.7508675
  60.3211090  40.3218936  35.8869614  59.5205256  40.5123845  35.1863777
  61.1545122  41.2516265  36.1578209  61.9740063  40.6418812  37.1630881
  63.0463652  41.2102844  37.9446091  63.6795125  42.3004342  37.8217962
  63.5670344  40.2835007  38.8345015  64.2552407  40.6225791  39.4910309
  62.9161615  39.0803791  39.1352671  63.2846428  38.3524433  40.1853513
  64.2038724  38.5699487  40.5451768  62.7337525  37.5271557  40.3724510
  61.8083998  38.6012609  38.5340926  61.4147960  39.4192823  37.5168026
  56.9504023  37.7208996  37.3539187  56.1624332  38.4746218  37.3487604
  58.2227468  38.5180559  37.8072038  58.0364724  39.5887914  37.7235470
  58.6167395  38.1202667  38.7426477  56.6530823  36.5211009  38.1032323
  56.1239601  36.5043581  39.6117761  55.6748865  35.1046784  39.8726182
  55.0793996  37.5622209  39.6959059  57.4247156  36.7632068  40.6271881
  58.4573768  35.7877286  40.6687333  58.9274726  35.7702740  39.6862527
  58.0061762  34.8056582  40.8143109  59.5811641  36.1351545  41.7118821
  60.1467566  35.2254826  41.9146115  60.3874529  37.1737462  41.1473253
  60.5002920  38.1868665  42.1558973  61.3712235  38.1399165  42.8102947
  60.5697434  39.5681419  41.4584212  59.7145746  40.1515476  40.5432790
  58.8864914  39.5943842  40.1296970  59.9732079  41.4089728  40.2383667
  61.1410162  41.5704210  40.9566657  62.0842137  42.6611903  41.0387490
  62.0037228  43.8417597  40.4660142  62.7938772  44.4710180  40.4901804
  61.2305676  44.1007822  39.8693926  63.2202249  42.6367290  41.7308828
  63.4169701  41.5111384  42.4181746  64.3977256  41.4289204  42.8643392
  62.6310832  40.4734825  42.5229316  61.5024513  40.5266559  41.7335498
  58.9188652  36.5847940  43.0616163  57.8584174  36.3315094  43.0937645
  59.2120042  38.1036213  42.9637629  58.4431252  38.5924797  42.3653586
  59.2837948  38.5927723  43.9350365  59.6219648  35.8825436  44.0816199
  59.2585738  35.9771356  45.5999493  59.7169904  34.7938907  46.2619815
  57.8288365  36.4126177  45.7634205  60.2152443  37.1875613  46.0746684
  61.5724137  37.0172162  46.3233104  61.8576901  36.3897227  45.4792866
  61.6474826  36.3523768  47.1844186  62.3198875  38.3661392  46.5933243
  63.3795491  38.1364716  46.6979770  62.1661340  39.3670612  45.5534670
  62.2767612  40.6475408  46.0848272  63.3068925  40.9948778  46.1743962
  61.3929870  41.6389412  45.3842637  60.0385893  41.4457468  45.0831213
  59.5945689  40.5117230  45.3950419  59.4050133  42.3530849  44.3098433
  57.9681069  42.0488811  43.9802358  57.8033232  42.2409963  42.9201830
  57.6482411  41.0149948  44.1148456  57.3618920  42.7228352  44.5852180
  60.0600559  43.5813153  43.8069932  59.6142572  44.4528752  43.1088055
  61.3686909  43.7234682  44.1923409  61.8918289  44.5445117  43.9232790
  62.0605122  42.7997620  45.0066259  63.2077321  43.0623025  45.3466201
  61.7543642  39.0726771  47.8170120  60.6872182  38.8658318  47.9017674
  61.8393870  40.5970506  47.6023385  60.8596737  41.0340974  47.7961422
  62.4990467  41.1944675  48.2315851  62.4215217  38.6692697  49.0244457
  61.6875185  38.9230702  50.4849886  62.5335614  38.1856689  51.4199061
  60.2722894  38.5274059  50.3516006  61.7164751  40.5264608  50.7775448
  62.9160498  41.1881792  50.9208006  63.5698892  41.0728663  50.0563499
  63.4392240  40.8183653  51.8024902  62.8305933  42.6810253  51.0173808
  63.7515908  42.9154834  51.5516037  62.7386283  43.2644781  49.7440740
  61.6998914  44.2470068  49.7387003  62.0689900  45.1727451  50.1797545
  61.1082725  44.5075443  48.3861869  60.0974386  43.9377234  47.6423974
  59.6966457  42.9948179  47.9854546  59.7029587  44.6238402  46.5649958
  60.5814583  45.7319664  46.5705420  60.5684925  46.8109139  45.6687565
  59.9609112  47.0169828  44.5904938  61.3840590  47.7958019  46.1799091
  61.5657002  48.6134875  45.6140348  62.2089338  47.6111871  47.2610455
  63.0354365  48.6139620  47.4248619  62.9026340  49.5098222  46.9760513
  63.6165157  48.6806610  48.2476147  62.3083531  46.5383707  48.0471885
  61.3972176  45.6695104  47.6777579  61.6630529  43.2392135  51.8144694
  61.1858450  42.5067996  52.4653561  60.7430353  43.5993860  50.6938314
  60.3475046  42.7677269  50.1101537  60.0060286  44.3767979  50.8960632
  62.0802752  44.4179868  52.4655055  61.1689890  45.4128742  53.3338094
  62.0844269  46.1484010  54.2532924  60.0530432  44.5623089  53.9107224
  60.5483817  46.4612368  52.3153520  61.4672203  47.0890524  51.3834893
  61.0723027  46.8417216  50.3977243  62.4723967  46.6693601  51.3868948
  61.7874170  48.5683592  51.6998857  62.8493987  48.4707945  51.9262283
  61.6671321  49.4796974  50.6452090  60.3058887  49.9554641  50.7451528
  60.4144876  51.0327430  50.6126294  59.5677946  49.4051661  49.5679675
  58.9270703  48.2135670  49.4158465  58.9549421  47.3940395  50.1183733
  58.2416357  48.1512415  48.2850924  58.5124441  49.3416697  47.6529979
  58.1071851  49.9064848  46.3778093  57.2648688  49.3407762  45.4628038
  57.0668765  49.7633293  44.5670662  57.0716183  48.3682364  45.6552423
  58.4143597  51.1724504  46.0798833  59.2460692  51.7989549  46.9268494
  59.3806992  52.8186013  46.5970296  59.7722048  51.3649706  48.0626460
  59.3173468  50.1344100  48.4075730  60.9992844  49.2614548  52.8240274
  60.8229641  48.5111520  53.5956231  59.7376526  49.5576845  52.0622990
  59.0765114  48.6953111  51.9795072  59.1365101  50.3758897  52.4612839
  61.7667510  50.3512179  53.2888268  61.1203822  51.4681657  54.3219004
  62.1761985  52.2579897  54.8940122  60.1629197  50.7907169  55.1760022
  60.2582834  52.4245700  53.3202830  60.9382611  53.1677266  52.3575823
  61.5614731  52.6659789  51.6162254  61.5857850  53.9031421  52.8348943
  59.8244763  53.8862219  51.4376927  60.4527915  54.4663556  50.7608390
  58.9988784  53.0017739  50.6846617  57.8705255  53.6357833  50.1977143
  58.1813121  54.3294824  49.4162782  56.8625681  52.7153199  49.6643305
  56.6235178  51.5913273  50.3475301  57.1302894  51.4237414  51.2864894
  55.9063641  50.6356638  49.8317019  55.7470807  49.4689996  50.7587259
  55.6112744  48.6254336  50.0824878  56.6414331  49.2177520  51.3302321
  54.8718355  49.6449809  51.3853115  55.3255947  50.7537968  48.4616594
  54.6972109  49.8346419  47.8844550  55.4788596  51.9859748  47.9164700
  55.2042553  52.0391331  46.9456720  56.2713685  52.9958143  48.4237795
  56.4473712  54.0534796  47.7972429  58.7509633  54.7572460  52.1365997
  58.5988317  54.4420135  53.1691603  57.3842978  54.4151085  51.4046923
  56.7691435  53.8307081  52.0880717  56.8096387  55.2822465  51.0793470
  59.0614444  56.1370029  52.1592523  58.0614708  57.3105165  52.7108635
  58.9478545  58.4204718  53.0065003  57.2377257  56.8284047  53.8500848
  57.0227178  57.8451941  51.6596794  57.4025782  58.3901411  50.4467557
  58.2658692  57.9065635  49.9902512  57.8653530  59.3394555  50.7179779
  56.2624871  58.5172967  49.4401521  56.5710723  59.0347143  48.5318068
  55.9393730  57.1568314  49.0786201  54.6121872  57.2387759  48.6418310
  54.6636706  57.6682964  47.6424099  53.9761725  55.9041457  48.4271486
  53.7964509  55.1143433  49.5291655  54.2311071  55.3855665  50.4802895
  53.0378302  53.9766185  49.4578777  52.8494524  53.3361600  50.3072220
  52.5391407  53.6908466  48.1243677  51.9690072  52.5503231  47.9469444
  51.5610145  52.2697365  47.0664842  52.1151203  51.8159015  48.6247930
  52.8120494  54.3460167  47.0033690  53.3395028  55.5524462  47.2111205
  53.2509194  56.2974504  46.2490126  55.0136394  59.2081933  50.0181549
  55.1620534  59.3558231  51.0869484  53.9279394  58.1559263  49.6510055
  53.7347211  57.5837341  50.5588843  52.9807698  58.5889211  49.3292178
  54.7600260  60.4249996  49.3608417  53.6949230  61.5174908  49.7821166
  54.2783398  62.8262723  49.2934185  53.3939996  61.3272998  51.2116856
  52.3759159  61.1338057  48.8850927  52.3380751  61.4938203  47.4829605
  53.2450562  61.1723319  46.9707667  52.2458028  62.5794524  47.4631137
  51.0634842  60.9230225  46.8006389  51.1283922  61.2743849  45.7708518
  51.1579972  59.5090516  46.8807977  49.8590688  58.9402873  46.6782683
  49.6694062  58.9072442  45.6048437  49.7612208  57.5598537  47.2018654
  50.3206668  57.1822299  48.3629585  50.9167822  57.8557306  48.9613933
  50.2391347  55.8815826  48.5716002  49.3930440  55.4287574  47.5867657
  48.7600847  54.1824192  47.2356238  48.8950409  53.0541743  47.9014429
  48.4966546  52.1992641  47.5409405  49.5179425  53.0372556  48.6964293
  47.9832292  54.1405437  46.1582645  47.7307483  55.2252051  45.4191623
  47.0045896  55.0500992  44.6383726  48.2057668  56.4523546  45.6308212
  49.1224943  56.4493211  46.7134733  49.7454521  61.2582317  47.3766356
  49.7490932  61.8046603  48.3209849  48.9428828  59.9245490  47.4281404
  48.6470470  59.7048432  48.4539384  48.0147688  60.0408227  46.8677344
  49.0275278  62.1188015  46.5148699  47.7762880  62.9784888  47.0384210
  47.5438711  63.9617736  45.9833976  48.0126936  63.4691356  48.4280242
  46.5664881  61.9525155  46.9750641  45.9445858  61.6265168  45.6816967
  46.6427214  61.2247390  44.9465428  45.5733889  62.5208523  45.1807826
  44.8373560  60.5695736  45.7695788  44.1886495  60.5996322  44.8936328
  45.2737825  59.2127715  45.8949469  44.5764323  58.5883682  46.9179210
  43.6508768  58.2412386  46.4580578  45.2613713  57.3803960  47.4719570
  46.1076656  57.3369117  48.5589570  46.4327540  58.2260531  49.0777144
  46.3908193  56.1120459  48.9385736  45.6596573  55.2817998  48.0567287
  45.4700953  53.8917390  47.9728763  45.9891101  53.0022669  48.8164859
  45.8290950  52.0412329  48.5503810  46.6150936  53.2845536  49.5572354
  44.6403918  53.4469970  47.0025719  44.0584176  54.2920297  46.1690752
  43.2844060  53.8696225  45.5451456  44.1484391  55.5953118  46.1555873
  44.9663026  56.0142000  47.1563120  43.8760804  60.8004112  46.8937812
  43.9276514  61.7892344  47.3484932  44.2512113  59.7325206  47.8539122
  45.0604677  60.0846825  48.4923117  43.3790388  59.4376965  48.4390864
  42.5453915  60.5155367  46.5303919  41.5280498  61.7439385  46.1171681
  42.1586718  62.6010006  45.0577071  41.0290453  62.3964224  47.3469727
  40.3740720  60.8629356  45.5422768  40.5241161  59.9629920  44.3896752
  41.4699103  59.4233039  44.4316262  40.5728892  60.5577093  43.4775275
  39.4314024  58.8603876  44.2326995  39.2766073  58.7525766  43.1591367
  39.9211533  57.6249745  44.8806375  39.1368894  57.4057581  46.1245360
  38.4735596  56.5516140  45.9940736  40.1851748  57.0545335  47.1610532
  41.0552105  57.8685799  47.8216456  40.9757322  58.9332310  47.6629783
  41.7766998  57.2825749  48.7821862  41.5279574  55.8945332  48.5289243
  41.9444319  54.5903622  49.0751129  42.7425517  54.4731129  50.0864563
  43.0305468  53.5689005  50.4315053  42.8903660  55.3409658  50.5805819
  41.5266351  53.4335367  48.4745244  40.7120757  53.5004785  47.4717185
  40.4002899  52.5817205  46.9977930  40.1489621  54.5956624  46.9660185
  40.5616361  55.7671597  47.5695218  38.0769683  59.1483470  44.8847775
  37.9098293  60.2250422  44.8850333  38.1867229  58.5750100  46.3600600
  38.6570649  59.2616966  47.0649288  37.2542163  58.3435016  46.8752349
  37.0347771  58.4973569  44.2168977  35.5487122  58.4579324  44.7907504
  34.6205426  58.4059337  43.6551972  35.4032443  59.4919449  45.8241019
  35.6250267  56.9958863  45.4126727  35.9550104  55.8570156  44.5284543
  36.9348480  55.9754294  44.0650036  35.2666458  55.7502648  43.6899309
  35.6943363  54.5466889  45.2538797  35.6193731  53.7160158  44.5520901
  36.6882456  54.2952658  46.2115496  36.0251872  54.1805447  47.4498818
  35.7263394  53.1357390  47.5285272  36.8303345  54.6006796  48.5763672
  37.1497422  55.8950849  48.8796555  36.7259824  56.6787380  48.2684891
  38.0155806  56.1676675  49.9072525  38.2531062  57.5965550  50.3119007
  38.1211197  58.2413523  49.4430653  37.6226101  57.8398001  51.1669473
  39.2530304  57.7209449  50.7271507  38.6897436  55.0765142  50.6200847
  39.4636249  55.2607069  51.5206616  38.3516216  53.8180741  50.2332424
  38.7485760  53.0301526  50.7251223  37.4703565  53.5396370  49.2333896
  37.3389567  52.3876070  49.0186920  34.2919770  54.5974581  45.8567237
  33.6930188  55.4612072  45.5685143  34.6606313  54.8489093  47.3426999
  34.7232872  55.9276321  47.4858270  33.8878335  54.3893456  47.9580988
  33.5053366  53.4019663  45.6924635  32.0269116  53.2960368  46.2216765
  31.4508165  52.4797814  45.1281868  31.4613526  54.6621333  46.3605193
  31.8098052  52.5331590  47.5578289  32.1736371  51.1984798  47.7029353
  33.0704101  50.9227988  47.1484157  31.3250372  50.5827828  47.4055508
  32.5217016  51.0664027  49.1722956  32.7930824  50.0214289  49.3231999
  33.6810204  51.8453347  49.5437145  33.5958985  51.8769951  50.9594044
  34.0420075  50.9473148  51.3132508  34.2712284  53.0221100  51.5390995
  34.0434253  54.3401526  51.0821112  33.1665882  54.5370142  50.4820152
  34.7889187  55.4196660  51.5049926  34.3597087  56.8485016  51.1758720
  34.2787588  57.3394112  52.1460286  35.1572235  57.4115559  50.6909214
  33.4145301  56.8001114  50.6341627  35.9397052  55.1873927  52.4851974
  36.6433318  55.9804517  53.1596660  36.2480243  53.8442762  52.7477777
  36.8521935  53.6868955  53.5420320  35.4493310  52.7994862  52.3238722
  35.8576802  51.6781045  52.6887543  31.3410721  51.4612805  50.0705937
  30.7911910  52.3066571  49.6585219  32.1122606  51.8134328  51.3406450
  31.7842066  52.8054831  51.6519226  31.9031622  51.0637223  52.1037996
  30.3609408  50.4262110  50.2823852  29.0850297  50.6444429  51.1750586
  28.1037548  49.6830967  50.6493981  28.7680963  52.0847618  51.2595842
  29.5561205  50.2311229  52.6339792  30.1278994  48.9429449  52.9293575
  30.9661663  48.8302267  52.2421799  29.3046894  48.2541399  52.7361631
  30.6064857  48.8294779  54.3591230  30.9886215  47.8208647  54.5182258
  31.6314314  49.7045066  54.5122501  31.2985746  50.6273277  55.5584416
  31.6770347  50.1640271  56.4690461  31.9967597  51.8782149  55.3539309
  31.5644782  52.9230318  54.5707474  30.6672310  52.8444241  53.9751356
  32.3481391  53.9805782  54.5832440  33.3714197  53.6072567  55.4410534
  34.5125276  54.1979261  55.9283842  35.0142772  55.2737831  55.4668084
  35.9193984  55.5726458  55.7988681  34.6047470  55.7567785  54.6800134
  35.3029791  53.6368108  56.7702543  35.0068512  52.3999575  57.1513634
  35.4530644  52.0481130  58.0694550  33.9823675  51.6287929  56.7843250
  33.2401506  52.2575477  55.8668751  29.5377753  49.2208680  55.4027172
  28.5761623  49.1827326  54.8916633  29.8337550  50.7125675  55.7627251
  29.2542161  51.3779130  55.1226594  29.6232013  50.7851779  56.8297204
  29.6722485  48.2585314  56.4772651  28.9664832  48.3168135  57.9746070
  28.6826567  46.8809842  58.5143389  27.8302711  49.3181884  57.9634523
  30.1143188  48.8963661  58.9228881  31.3651162  48.1836576  59.0663827
  31.7070684  48.0536154  58.0397856  31.2198655  47.2023801  59.5185627
  32.3652473  48.8812572  59.9842615  33.2106055  48.1964653  60.0562040
  32.6828842  50.0676676  59.3318705  32.7394476  51.1067828  60.2842881
  33.7575274  51.0956641  60.6759204  32.5139400  52.4435101  59.6395056
  31.4297515  52.6941486  58.7820258  30.6893054  51.9215915  58.6374704
  31.3241759  53.8760760  58.1357253  30.1136400  54.0659740  57.2133769
  29.3193490  54.6081737  57.7262767  30.2275918  54.6549843  56.3035028
  29.7673066  53.0871744  56.8811217  32.3758009  54.9085962  58.3389388
  32.4438958  56.0194125  57.8103148  33.3638295  54.6133490  59.2430375
  34.0794898  55.3094078  59.3976772  33.4899975  53.4092713  59.8613681
  34.4577596  53.2099027  60.6115852  31.9292842  49.2987349  61.3732228
  31.0032154  48.8019694  61.6656619  31.6932496  50.7923577  61.3299044
  30.6679771  50.8617015  60.9660228  31.7741094  51.2930938  62.2941399
  32.9300143  49.0584194  62.3404894  32.4704418  48.8533293  63.1576186
  39.3012804  63.5830721  57.3658360  40.0368714  62.9964561  57.5555480
  40.7274480  63.6484383  58.6348487  40.6362044  64.7217026  58.4673842
  41.7644414  63.3286800  58.5263352  40.2571428  63.3078572  60.0097951
  40.7923297  63.9827350  60.6777629  38.8302811  63.3098607  60.0904585
  38.2983060  62.0884387  60.6511364  37.5611848  62.3333775  61.4166162
  37.6667284  61.2988953  59.5812723  37.2399779  61.7109779  58.3070311
  37.5195085  62.6375344  57.8286883  36.4982989  60.8141557  57.7003061
  36.3026072  59.8528172  58.7196168  35.4861102  58.6837591  58.8631744
  34.6080026  58.1602938  58.0682001  34.0895319  57.3264972  58.3029607
  34.5025717  58.6859777  57.2122798  35.4952006  57.9329589  59.9744576
  36.3287079  58.3139019  60.9284765  36.3057183  57.7107233  61.8235475
  37.0610787  59.4070917  60.9891070  37.0863360  60.0921978  59.8520262
  40.6936424  61.7680036  60.1780714  40.6460405  61.1520627  59.2806101
  39.6170180  61.3472668  61.2150813  39.4166661  60.2821546  61.3268357
  39.8985008  61.9200248  62.4778152  40.8559273  61.9854685  62.4556874
  41.9953500  61.6119138  60.7690142  42.9057571  60.3058609  60.4612496
  44.1849545  60.3759200  61.1783350  42.9895923  60.0516339  58.9803258
  42.1729734  59.0191724  60.9796874  41.9878112  58.8007689  62.3564037
  41.5204906  59.6119527  62.9144245  42.9698484  58.6850045  62.8162064
  41.0663154  57.5596592  62.5947339  40.8814799  57.4765759  63.6662072
  39.8323219  57.6282286  61.9584923  39.2229450  56.3694458  61.6486542
  38.3777531  56.1638291  62.3053203  38.8155256  56.3696618  60.2330121
  39.2934243  57.2786471  59.2222087  39.9815984  58.0675843  59.4874925
  38.7610106  57.3972436  58.0284798  39.1886320  58.1059305  57.3347422
  37.7627578  56.4394760  57.5784760  37.2273944  56.5161445  56.5439525
  37.4089376  55.4373242  58.4964919  36.8975469  54.6498702  58.1234332
  37.9886416  55.3080408  59.7547375  37.5838644  54.3817432  60.4977975
  41.5996487  56.2515158  62.1041114  41.9091728  56.5023268  61.0898932
  40.3803471  55.3640456  62.0415217  40.5907373  54.6678783  61.2300706
  39.9636780  54.7680802  63.3058967  39.4047023  54.0074449  63.1327691
  42.5950811  55.6915685  62.9953619  43.9178459  55.1916360  62.3329197
  44.7579489  54.6371332  63.3975631  44.3841771  56.2683553  61.4633907
  43.4972968  53.9826104  61.3630988  42.9861579  52.8157926  61.9877941
  42.4082100  53.1937979  62.8318689  43.8028830  52.2961546  62.4893461
  42.1576154  51.8773572  61.0385242  41.7350996  51.1038339  61.6795726
  41.0131291  52.5436966  60.5749110  40.5725153  51.9312700  59.3515689
  39.5662914  51.5229299  59.4474320  40.5594205  52.9682774  58.2277000
  41.4534287  53.9904120  58.0174827  42.1838573  54.1804039  58.7901994
  41.2404690  54.7078097  56.9208480  40.1553293  54.0589884  56.3566346
  39.3200094  54.3653719  55.2929707  39.4647042  55.4491502  54.5866662
  38.8673966  55.6188829  53.7903274  40.1762634  56.1444853  54.7638149
  38.3131886  53.5867873  54.9305113  38.0876889  52.5306162  55.6831343
  37.2808020  51.9177444  55.3076086  38.7361649  52.1066796  56.7861001
  39.8311509  52.9045956  57.0380959  42.8742516  51.3120944  59.7936886
  43.4655832  52.0687662  59.2765081  41.6206394  50.8819812  58.9941631
  41.8255129  50.9070116  57.9238522  41.1522076  49.6201235  59.3804815
  41.2853750  49.0526172  58.6176513  43.6928579  50.2440238  60.1199690
  44.7010212  49.6313917  59.0234880  45.6263793  48.7381683  59.7921840
  45.2857620  50.7185592  58.2295367  43.8457521  48.7088325  58.0313855
  43.3260271  47.4573169  58.3619541  42.8856832  47.5510196  59.3549727
  44.1569091  46.7647196  58.4906286  42.2512377  46.9218590  57.4068973
  41.9727493  45.9594992  57.8367423  41.2721544  47.9801058  57.2185503
  40.9873128  48.2807178  55.8679538  39.9173022  48.1149145  55.7393706
  41.3739832  49.6400150  55.3792410  42.5200796  50.4127128  55.6500453
  43.2368230  50.1535251  56.4159556  42.4299036  51.5609825  54.9998707
  41.2998482  51.3995383  54.1084339  40.7107941  52.2080148  53.0897008
  41.0584225  53.4255284  52.7424099  40.4879183  54.0317939  52.1696192
  41.8164076  53.8573414  53.2503451  39.6403031  51.8230842  52.4257523
  39.1712337  50.6114003  52.6774447  38.3075422  50.2608712  52.1324270
  39.5287398  49.8285117  53.6843115  40.6868443  50.2478614  54.3512911
  42.7959701  46.6610268  55.9561585  43.6658451  47.2939036  55.7786975
  41.7197328  47.2337490  55.0242955  42.1611386  47.7258399  54.1574619
  40.6700133  46.3216627  54.8127732  40.9096907  45.5750143  54.2581778
  42.9990942  45.3219940  55.6750253  43.9721370  44.8848111  54.4951530
  44.1753418  43.4408125  54.6035685  45.0514978  45.8550391  54.5865299
  43.2132336  45.1483833  53.1376699  42.0556236  44.4111641  52.7647935
  41.3452972  44.2010622  53.5644182  42.3396014  43.4027100  52.4654828
  41.2232560  44.9522026  51.5585172  40.4167121  44.2366428  51.3978870
  40.8423284  46.3138228  51.7863893  40.9175500  47.0903096  50.6404697
  39.8958225  47.4017093  50.4254046  41.8336250  48.2629338  50.7383691
  42.9653994  48.3245581  51.5160208  43.3891599  47.4193421  51.9249584
  43.6428178  49.5066726  51.7663079  44.5927912  49.4772645  52.2792003
  43.1205720  50.7324991  51.2539508  43.6060108  51.8079399  51.4097629
  42.0483580  50.6167406  50.5501845  41.7293583  51.4493722  50.0742121
  41.3907718  49.4589165  50.1723448  40.5130748  49.5301838  49.2790146
  42.0060437  44.8755955  50.2253148  43.0713186  45.1013180  50.2587336
  41.4033581  46.1266807  49.5230066  42.1634836  46.5305588  48.8544614
  40.2139164  45.8635387  48.7478274  40.2197085  46.4655416  47.9993029
  41.7488409  43.7878125  49.3813836  42.6054309  43.4388113  48.0816583
  42.1460954  42.1193530  47.5559705  43.9602713  43.6435632  48.5007169
  42.3916821  44.5010670  46.8489157  41.2034831  44.5243050  46.0180414
  40.2924930  44.3851099  46.5993698  41.0946414  43.7299960  45.2791722
  40.9914276  45.9003498  45.3396557  40.0647615  45.8302013  44.7712094
  40.8220494  46.9483507  46.2965962  41.2923968  48.1758167  45.7598034
  40.4309581  48.8299714  45.6299232  42.3869329  48.7365420  46.6014511
  43.4181727  47.9575071  47.0607103  43.4790746  46.9488242  46.6820076
  44.3144249  48.4604107  47.8847188  45.0776437  47.8133558  48.2927239
  44.3494803  49.8800287  48.1551511  45.2114567  50.4064145  48.9008988
  43.4665247  50.6403261  47.4953759  43.6741348  51.6285594  47.4787001
  42.4973362  50.1603754  46.6334931  41.9161766  50.8681301  45.8028393
  42.0833661  46.3273876  44.3232316  43.0595941  46.1419586  44.7694290
  41.8439809  47.8584863  44.3028986  42.7845516  48.3682055  44.0908206
  40.8438659  48.1186193  43.3409128  40.8114150  47.4674566  42.6367359
  41.9348978  45.6035435  43.1058204  43.2811162  45.2970514  42.3322310
  42.8835431  44.6253511  41.0835488  44.2391270  44.7015291  43.1878861
  43.7440898  46.8041929  41.9844362  43.1136073  47.5545266  40.9491772
  42.0332362  47.5679466  41.0924501  43.3044905  47.1009115  39.9766146
  43.6238768  49.0384528  40.9399650  42.8824492  49.6388210  40.4124338
  43.6183349  49.6321745  42.2082094  44.5699552  50.7300426  42.2535821
  44.1340484  51.7287298  42.2194200  45.3793211  50.7084856  43.4919178
  45.6782429  49.4536383  44.0844697  45.3794296  48.4972352  43.6825135
  46.4248040  49.3986542  45.1885586  46.6197364  48.4928647  45.7437097
  46.9098238  50.6086988  45.8239868  47.6444101  50.6871188  46.7916610
  46.4661874  51.7824552  45.2109904  46.8945411  52.6073249  45.6072633
  45.7605944  51.9149018  44.0905560  45.6590369  53.0607003  43.6060719
  45.0628753  49.3011324  40.4355309  45.6612949  48.5466225  40.9452002
  45.3851031  50.7250396  40.9465264  46.4499922  50.8791837  41.1196498
  44.8159724  51.6346603  40.0314365  45.5579246  51.9462424  39.5083739
  45.2979680  49.1234616  39.0848542  46.7923762  49.0368707  38.5602713
  46.6491875  48.6181420  37.1639307  47.5362893  48.2677541  39.5333155
  47.4434618  50.4935195  38.6188438  47.2285746  51.5440528  37.7820688
  46.1775659  51.5926631  37.4965311  47.8446963  51.5220113  36.8827351
  47.6855805  52.9276517  38.4748391  47.2779136  53.6761912  37.7949265
  47.3090166  52.9574054  39.8812602  48.1998394  53.7927618  40.5887971
  47.6437523  54.6129124  41.0420796  48.8035289  53.0045096  41.6882381
  48.7867795  51.6199609  41.8892812  48.2825166  50.9448868  41.2135247
  49.2979667  51.2725590  43.0120766  49.8544775  52.4709512  43.4952443
  50.7485717  52.6746042  44.5729544  51.1784250  51.8999563  45.4599880
  51.2845025  53.9656177  44.6391619  52.0845544  54.0532801  45.2496095
  51.0097642  54.8809885  43.6430163  51.3815017  56.1605845  43.9598056
  51.9189261  56.2917862  44.8052003  50.9760712  56.9777885  43.5262326
  50.1386379  54.7363296  42.6518000  49.6435918  53.4834897  42.6172820
  49.1599234  53.2354014  38.5744989  49.6871405  52.3651143  38.9668019
  49.2183863  54.4278259  39.5819496  50.2230055  54.5019087  39.9975926
  48.7772975  55.6278556  39.0370797  49.3034857  55.8204338  38.2576308
  49.5789053  53.5901569  37.2479674  50.9982294  53.0210652  36.8360892
  51.1696413  53.3154499  35.3625494  51.1161306  51.6503970  37.3198752
  52.0951659  53.9085995  37.5900549  52.1361539  55.3190341  37.6471366
  51.1667529  55.7572796  37.8839079  52.5719360  55.6740103  36.7130280
  53.0943470  55.8853607  38.7582267  53.0042545  56.9687982  38.6884156
  52.6931275  55.5229219  40.0976991  53.7714370  55.4889353  41.0231819
  53.7014218  56.1979002  41.8467599  53.8170567  54.1263786  41.5665632
  53.1616783  53.0822963  41.0784288  52.7325408  53.0942960  40.0871256
  53.2290481  52.0155080  41.8053476  53.8856941  52.4942045  42.9579271
  54.2165682  51.8924786  44.1907427  54.1595627  50.5821861  44.4162490
  54.2074836  50.2053331  45.3516865  53.8334169  50.0091716  43.6516548
  54.8136002  52.6789544  45.1076062  55.1014093  53.9572544  44.8209426
  55.4519230  54.6142933  45.6023632  54.9325430  54.5970476  43.6935945
  54.2814456  53.7831378  42.7988739  54.5543375  55.3920035  38.6747318
  54.5415733  54.3150961  38.5089440  54.9655789  55.8317435  40.1386246
  55.8297877  55.2487499  40.4565565  55.2633505  57.1417873  40.2925767
  55.6992169  57.6055956  39.5738086  55.3877060  55.9512672  37.6732020
  56.8204243  55.3443952  37.2091487  57.2759263  56.1229876  36.0341348
  56.7304680  53.8867064  37.0342021  57.9565164  55.4627933  38.3604636
  58.4887469  56.7166364  38.7891000  57.7450113  57.4949508  38.6147299
  59.3522128  56.8734461  38.1422798  58.9929268  56.6133496  40.2060853
  59.3798674  57.6091655  40.4197594  57.9639369  56.2256743  41.1199129
  58.5417913  55.5837354  42.2241491  58.2787878  56.0260352  43.1848957
  58.1594427  54.1285272  42.1472363  57.6308135  53.5291579  41.0818966
  57.6126245  53.9995885  40.1109027  57.2968082  52.2413797  41.1728024
  56.9035660  51.6800838  40.3383389  57.4418133  51.3793308  42.3840853
  57.0364101  50.2627217  42.5442550  57.9916858  52.0853720  43.3848431
  58.0392933  51.6188781  44.2793121  58.3859830  53.3606098  43.3144708
  58.8612022  53.8366619  44.3646037  60.2436817  55.8260512  40.5119078
  60.1749439  54.7941353  40.1684582  60.0563622  55.7595510  42.0207972
  60.5849817  54.8873209  42.4071624  60.4467293  56.8929836  42.7561128
  61.1226657  57.1978419  42.1457249  61.4173552  56.5683613  40.1868228
  62.8223202  55.8996289  39.9575824  63.8739757  56.9593472  39.6801804
  62.6988903  54.7028842  39.0714355  63.2476681  55.3103102  41.3523077
  63.7686262  56.1208566  42.4194854  63.0433470  56.8988802  42.6591482
  64.7612861  56.5386247  42.2523261  63.9919951  55.3060020  43.7155137
  64.4400975  55.9687947  44.4569678  62.8131661  54.6886719  44.1616748
  63.2655968  53.4176753  44.8836804  63.0295427  53.3942333  45.9471173
  62.5246126  52.2585338  44.2139144  62.0744017  52.3244602  42.8990346
  62.2467023  53.2503655  42.3689686  61.2833136  51.3730568  42.3512133
  60.7463701  51.3828458  41.4131451  61.1091942  50.1740442  43.1288637
  60.4073711  49.1984223  42.7198561  60.1632561  48.4100490  43.3007911
  59.8664651  49.4194937  41.8952828  61.6508658  49.9843631  44.2983589
  62.2659969  51.0966670  44.9085915  62.6557607  50.9370368  46.1034431
  64.9185653  54.1484809  43.4161805  64.5706816  53.6074848  42.5366112
  64.7838435  53.2175712  44.6073363  65.0540362  52.1902836  44.3621298
  65.3803760  53.8688868  45.6993354  66.1971657  54.2331169  45.3498485
  66.2879279  54.5699234  43.3642452  67.3995395  53.6946075  42.5590316
  68.6645013  54.4421949  42.5695544  66.7965376  53.3673064  41.2395667
  67.5623997  52.3944067  43.3963371  68.3529500  52.3722780  44.5674295
  68.0151528  53.2239003  45.1591462  69.4084951  52.5382580  44.3520088
  67.9952913  51.0467888  45.3222332  68.4655743  51.1959063  46.2936043
  66.6690543  50.7661610  45.6146398  66.4195448  49.3203164  45.5641862
  65.9361252  49.0363183  46.4991833  65.7252892  48.9651386  44.3567464
  65.4861776  49.7045899  43.2836004  65.9903730  50.6166929  43.0014867
  64.5716825  49.2218693  42.4442998  64.2535346  48.0493545  43.0622141
  63.3069370  47.0615462  42.7145739  62.4871264  46.9876080  41.6771377
  61.7274987  46.3211220  41.6806161  62.3972275  47.7650367  41.0390805
  63.0540732  46.0240232  43.5221647  63.7527640  45.9816324  44.6574762
  63.7284953  45.0927053  45.2722132  64.6700266  46.8645955  45.1584687
  64.8824419  47.8521275  44.2669087  68.6786134  49.7043917  44.8230071
  68.5118632  49.7274874  43.7460549  67.7859546  48.6624125  45.5811453
  67.8579714  47.7694611  44.9605549  68.3611769  48.5969163  46.9080649
  69.2144562  49.0116496  46.7630382  70.0280204  49.6116507  45.2382634
  71.1164568  48.8694931  44.4473252  72.3007024  49.0716767  45.2193312
  71.1147110  49.3265395  43.0500914  70.5834869  47.3973641  44.6042755
  70.9130571  46.5337634  45.6156301  70.6586327  46.9445907  46.5927438
  71.9333509  46.1561597  45.5411318  69.9860350  45.2562366  45.5585669
  69.8972165  44.7505401  46.5200368  68.6599363  45.6423163  45.3051071
  67.9603969  44.5797287  44.7288968  67.1572763  44.2836382  45.4033808
  67.3061185  44.8333765  43.4440024  67.6689968  45.9122220  42.6677365
  68.5411797  46.4625576  42.9883745  66.8469289  46.3129057  41.6288891
  67.1230535  47.2094123  41.0927155  65.7202982  45.4707176  41.1437504
  64.9624147  45.7290271  40.2276178  65.4799575  44.3645930  41.9285820
  64.6937121  43.7909903  41.6589282  66.2206402  44.0448003  43.0704444
  65.9410386  42.9766588  43.5961122  70.3492309  44.2340423  44.5107987
  70.6630742  44.7161884  43.5844178  68.9845682  43.4955272  44.4378865
  68.8344321  43.0733747  43.4445409  68.8929890  42.4460065  45.3656412
  69.3243082  41.6888873  44.9624684  71.4339675  43.4473643  45.0116353
  72.1432560  42.3621126  44.1086865  73.3629516  41.8879320  44.7678439
  72.3231737  43.0465843  42.8417835  71.0777828  41.1730987  43.9188876
  70.8982336  40.1718563  44.9554057  70.5273730  40.7334259  45.8130816
  71.8538971  39.6919947  45.1636798  69.8707445  39.1579214  44.4917828
  69.9373602  38.4078767  45.2797500  68.5585150  39.7768580  44.4577639
  67.9056494  39.1524026  43.3116714  66.9519954  38.7472395  43.6492996
  67.5800880  40.0200181  42.1022339  68.4018199  40.9088641  41.6145777
  69.3493560  41.0130257  42.1222576  68.0735566  41.6488349  40.5100998
  68.7837435  42.3989999  40.1930494  66.7631842  41.4883333  39.9824802
  66.3740143  42.1439606  38.9107523  65.4523839  42.0257535  38.5144978
  67.0699500  42.7817749  38.5526625  65.9311344  40.6039360  40.4529390
  66.3230728  39.8735026  41.4858031  65.5209249  39.0167004  41.8795196
  70.1689803  38.4810392  43.1962694  70.5097862  39.2141502  42.4651082
  68.7300637  37.9704137  42.8640126  68.6021361  37.8204794  41.7923913
  68.2904162  36.7835233  43.5791903  68.8846581  36.6739122  44.3244801
  71.0646906  37.4148698  43.2570383  71.8204485  36.9719113  41.9590223
  72.7485841  35.9642072  42.4192438  72.3562158  38.1640815  41.2777876
  70.6190495  36.3329142  41.0463405  70.0065873  35.0755864  41.3845266
  69.6549983  35.0398399  42.4159437  70.7758286  34.3057380  41.3226684
  68.7367048  34.8018000  40.5232662  68.1114338  34.0329068  40.9781591
  68.0522806  36.0260505  40.3801715  67.2129053  35.9625371  39.2009836
  66.1881161  35.7184250  39.4825818  67.2445581  37.2375051  38.4054155
  68.3016913  38.1734416  38.5610343  69.0797245  38.0754359  39.3036656
  68.2838689  39.3641833  37.8547699  69.1541407  39.9897681  37.9884884
  67.2646427  39.6755247  36.8848176  67.1862001  40.6730463  36.1206897
  66.4133234  38.5843547  36.6691221  65.7647060  38.7556827  35.9138657
  66.2711387  37.4051945  37.4335039  65.4339353  36.5225019  37.1583110
  69.0700063  34.4234560  39.0800729  69.7989158  35.1400414  38.7014686
  67.6983594  34.6947347  38.4310437  67.7569393  34.9069007  37.3634633
  66.7246517  33.5823639  38.7269082  66.4254055  33.2090375  37.8947339
  69.5562181  33.1075920  38.8587271  70.1462510  32.6107825  37.4588569
  70.6928090  31.2251808  37.5285507  71.0820834  33.6467945  36.9936118
  68.7678556  32.7087180  36.5510371  67.7950097  31.5917852  36.5732441
  67.3711362  31.4741784  37.5695778  68.4697064  30.7824533  36.2914601
  66.6434466  31.7565610  35.5320845  65.9378251  30.9265447  35.5780853
  66.0454069  33.0584316  35.6746729  65.6502755  33.4948057  34.4095504
  64.5632457  33.4232350  34.3966718  66.2641549  34.8016396  34.0709930
  67.4553485  35.3221789  34.6367215  68.1845242  34.7757989  35.2164462
  67.8215366  36.4995962  34.2175083  66.7158400  36.7679346  33.3432619
  66.4122216  37.8881402  32.5130852  67.0039044  39.0066932  32.4451172
  66.6421958  39.6807698  31.7861114  67.8686846  39.1619863  32.9421173
  65.3609822  37.8775503  31.6725797  64.5665428  36.7939341  31.7061503
  63.6736935  36.8334896  31.0998563  64.7572164  35.6570959  32.3519014
  65.8059977  35.7421608  33.1775604  67.2880344  31.7213444  34.1456223
  68.2349437  32.2608280  34.1691624  66.1623867  32.4638034  33.3968059
  66.5189798  32.9467437  32.4863253  65.1268471  31.5309030  33.0309051
  65.3916183  31.0665741  32.2342396  67.4428040  30.3703494  33.8167320
  68.2857473  29.9020251  32.6016695  68.4081521  28.4534005  32.6709576
  69.4552354  30.7515742  32.5298359  67.4349470  30.3120261  31.3353982
  66.2912920  29.4778196  30.9633677  65.7668375  29.3203490  31.9057076
  66.6030400  28.5680977  30.4491808  65.4031469  30.2291275  29.9578740
  64.5415935  29.5978430  29.7384847  64.9727320  31.5465834  30.4212552
  64.9857525  32.4407789  29.3430457  63.9888181  32.8489731  29.1739059
  66.0087135  33.5366660  29.3131219  67.3110168  33.3109924  29.7479533
  67.6933762  32.3184998  29.9323163  68.1527602  34.3347974  29.8975409
  69.2096451  34.2273885  30.0900291  67.7802021  35.7319463  29.7235316
  68.5313403  36.7138080  29.8358035  66.5257858  35.8377254  29.2088933
  66.2800326  36.7819291  28.9491514  65.5866011  34.8121755  28.9287409
  64.6146645  35.0793632  28.2634658  65.9382460  30.5391829  28.5145835
  67.0070648  30.7434069  28.4610584  65.0420262  31.6239475  28.0845126
  65.4576515  32.1606576  27.2321870  63.7331655  31.2215696  27.6963547
  63.9141989  30.6207864  26.9696976  65.7302549  29.2886017  27.8005559
  66.7872788  28.7817963  26.7560973  66.2857078  27.5577939  26.0736666
  68.0437201  28.7181636  27.5194716  66.8398300  29.9706422  25.7425447
  65.7121262  30.0661673  24.8723269  64.7973904  29.9369890  25.4498296
  65.6596063  29.2671493  24.1326392  65.6856215  31.4604333  24.1240209
  64.8250756  31.3753687  23.4593633  65.5205785  32.5777571  24.9437698
  66.3072054  33.6148959  24.3797600  65.7035014  34.5142107  24.2530980
  67.4227549  33.9258575  25.3370688  68.0681064  32.9478761  26.0845424
  67.6923602  31.9377794  26.0159468  69.0185631  33.2749691  26.9950524
  69.5067240  32.5372380  27.6134760  69.4467760  34.6651625  27.1456710
  70.3902579  35.0791294  27.8351260  68.7746236  35.6121572  26.4439416
  69.0945097  36.5556235  26.6073741  67.8643174  35.2548033  25.4574961
  67.4161171  36.1102557  24.7490234  66.9523710  31.6017563  23.2775797
  67.7930694  31.2704606  23.8870273  66.9360073  33.1512995  23.0558164
  67.9636294  33.4857486  22.9149171  66.1128773  33.5147568  22.0480988
  65.8920155  32.7584810  21.5007133  66.9635408  30.9718216  22.0368297
  68.2709204  30.6987326  21.3160587  67.9630395  29.8825225  20.1616167
  69.2762109  30.1412606  22.2409943  68.8102502  32.0912250  20.8050484
  68.3754754  32.7671303  19.5939828  67.3140793  32.9835768  19.7209401
  68.4824170  32.1949885  18.6732200  69.2294383  34.0076266  19.4146775
  68.9461555  34.5748782  18.5285774  69.2108345  34.7727772  20.5974672
  70.4952825  35.3130524  20.9241244  70.4687930  36.3944253  20.7895105
  70.8890402  35.0384121  22.4177514  70.4567964  34.1097001  23.2969171
  69.7896380  33.3002715  23.0379134  71.1326861  34.0908687  24.4430482
  71.8981035  35.2970418  24.3426454  72.7832804  35.9813275  25.2119623
  72.9488673  35.6928935  26.5002607  73.2769421  36.3887991  27.1560474
  72.4349011  34.9084732  26.8745300  73.2493889  37.1692590  24.8711798
  72.9612427  37.6634884  23.7186625  73.3634203  38.6501602  23.5416433
  72.2420035  37.1453132  22.7487973  71.6932246  35.9187161  23.1505763
  70.7263281  33.6762506  19.2486627  70.9053953  32.7777084  19.8396296
  71.5138317  34.8162308  19.8870155  72.4701609  34.4559456  20.2668326
  71.6659462  35.8480266  18.8577655  72.5293107  35.8429342  18.4390498
  70.9265978  33.5578333  17.8658242  72.1613523  32.8150491  17.1296916
  71.8509194  32.7768686  15.6887250  72.4108457  31.5495358  17.7947285
  73.4729042  33.7295569  17.3222691  73.7566811  34.8023278  16.4818155
  72.8935747  35.4549958  16.3520279  74.0331010  34.3293226  15.5396748
  75.0073288  35.5448241  16.9734611  75.4207024  36.2552816  16.2567482
  74.8185912  36.2420508  18.2241833  75.9428261  36.2913113  19.0563079
  76.2253437  37.3326831  19.2115482  75.6123435  35.6652226  20.4172514
  75.0401596  34.4014083  20.5991666  74.7273514  33.8032324  19.7572030
  74.7709852  33.9173780  21.8245310  74.1573057  33.0315070  21.8844216
  75.2984606  34.5133734  22.9984860  75.4023195  33.9420034  24.0860684
  75.5780746  35.8362110  22.7933285  75.7557107  36.3212286  23.6606038
  75.8380712  36.4606665  21.5946196  76.1160250  37.6621162  21.5704268
  76.1161972  34.6010181  17.3192157  75.7698802  33.6616998  17.7505934
  76.9973735  35.3888660  18.2997120  77.5921774  34.7222161  18.9237691
  77.7740824  36.3071951  17.5718275  77.5592045  36.0886729  16.6624417
  76.8055638  34.3169300  16.0695667  77.3035405  33.5060140  16.1974002
  52.1688085  45.8514835  39.9245282  61.9801749  46.9549235  36.7259867
  49.5012949  45.2338468  47.9409235  45.9018450  55.5055204  55.1912605
  73.5881519  44.9902678  35.8400484  56.0628185  45.6454953  29.3233430
  53.7459647  43.4494507  53.3814357  59.6047665  30.8292940  32.5836039
  75.5979862  28.3889535  29.8701560  66.8494414  54.4578902  35.9028960
  69.0925313  46.6152223  52.4201249  57.4825583  63.5362619  56.3482478
  51.4435018  37.5774881  44.9784290  28.5158413  53.6857429  39.0212556
  76.4629232  35.9224332  37.2114298  64.7560558  30.9709660  43.3221956
  63.3851159  37.1686681  18.5384055  58.2074933  62.5307973  46.9118406
  68.6617445  51.2497792  28.3194706  45.3086327  42.5023615  35.5429594
  33.1054213  43.5870291  50.4868988  43.8269355  71.7373685  28.8655731
  70.8429918  22.1790687  21.7704267  60.9170632  43.0772389  60.0858821
  55.0420361  58.4585655  32.4938584  34.1851659  73.7983586  23.0780850
  67.3044527  55.6675329  50.5182861  73.6525925  43.9848812  16.9527483
  51.3069401  36.1756499  25.9596325  79.5611054  43.8787062  44.5961779
  58.2531559  31.2860305  52.4201249  20.6143997  49.1258627  52.8119619
  51.0098721  75.9133868  80.2289350  29.0584346  65.9629120  24.4749660
  49.7336691  65.8356804  53.3449672  62.3387170  48.3083824  20.0607399
  45.1142444  39.7689577  61.4398692  68.6617447  28.2559914  15.0440013
  70.1664036  38.4885839  94.4829120  41.3766748  53.5794122  35.7068101
  58.1030315  46.7549064 111.3746506  58.8761191  46.2078052 111.2359382
  58.4555714  47.6193314 111.5860967  60.4396593  42.9141731 109.0064956
  60.6922114  42.3923252 108.2448419  59.5021152  42.7507876 109.1091639
  65.6549953  47.3550359 111.5128356  65.0195786  47.4284986 112.2249260
  65.3247360  47.9443958 110.8347435  60.1592882  44.8169837 111.2089331
  60.0429140  44.1414740 111.8770415  60.2695142  44.3302210 110.3921484
  62.1429910  39.3069883 109.9097368  62.3104312  40.1750120 110.2767840
  61.9527079  39.4697165 108.9858658  62.1219131  41.7627541 110.8944035
  62.0018756  42.2084592 111.7329516  61.4271719  42.1112859 110.3357573
  67.8204197  42.2349014 111.7224369  68.7322053  42.4676401 111.5472067
  67.3113844  42.8186058 111.1599448  55.6093789  47.4088774 113.8367631
  56.1218310  48.2032024 113.9873196  56.2616502  46.7115064 113.7701233
  65.4707138  43.4052509 110.3011035  64.9553761  44.1757113 110.5399422
  65.1984446  42.7317645 110.9244096  65.2593441  41.2779601 112.1270816
  64.9543577  41.5925750 112.9780959  66.2123883  41.3561021 112.1698149
  58.7628188  40.1293951 110.1566267  57.9265500  40.4668638 110.4775542
  58.6232957  39.9942931 109.2193404  61.8492473  45.2550034 106.7798743
  60.9419535  45.0239288 106.9789892  62.3463505  44.4587653 106.9672725
  63.0280707  45.3562629 111.3022733  62.1191926  45.0721662 111.3995203
  63.0575790  45.7761708 110.4426040  62.7256794  46.8971373 108.6410812
  62.2876224  46.1807232 108.1816449  63.4667235  47.1247488 108.0795903
  66.8468022  45.7555754 108.2342869  66.2297193  45.0302583 108.1375922
  66.3784511  46.5165115 107.8909944  58.6366568  39.9741179 107.3564174
  57.7596034  39.8529980 106.9926420  59.1124321  39.1827257 107.1043062
  64.3374197  38.7389872 112.4243507  64.5537811  39.6214510 112.1232335
  63.8568264  38.3476085 111.6949149  59.3136756  49.1546646 112.4098599
  59.4624876  49.8382111 111.7565271  60.1203199  49.1351736 112.9248054
  62.8132161  51.6494777 109.8810346  62.2406128  52.2684964 109.4280818
  63.3864955  52.1994138 110.4150268  68.6617438  51.2497797 107.9722876
  68.5831069  50.9157661 108.8658634  69.4827105  51.7419565 107.9714348
  63.1978960  42.9855589 107.2226398  64.1438065  42.8561797 107.2914817
  62.8193205  42.2470251 107.6995827  61.3821877  40.9105566 107.1581284
  60.4753332  40.6138678 107.2343997  61.6597858  40.6135384 106.2915570
  60.1520662  37.7692501 107.2993263  61.0139826  38.0947399 107.5589080
  60.3371006  36.9823997 106.7866329  67.0878176  38.8021118 113.4984834
  66.2004031  39.0870768 113.2805029  67.5032165  38.6414881 112.6512111
  66.2321390  48.5665792 107.5932854  66.9357240  48.7715795 108.2090510
  65.5084038  49.1342554 107.8581938  67.7953979  45.5080435 111.0087654
  67.7402783  45.3424706 110.0676098  67.1700034  46.2156468 111.1649843
  64.1774689  26.6722050  97.7004678  63.5262669  27.2576130  97.3138692
  64.9719052  27.2028245  97.7599716  58.1030317  23.7611187  98.0991813
  58.8761193  23.2140174  97.9604688  58.4555716  24.6255436  98.3106274
  60.4396594  19.9203853  95.7310262  60.6922115  19.3985374  94.9693725
  59.5021154  19.7569999  95.8336946  65.6549955  24.3612482  98.2373662
  65.0195788  24.4347108  98.9494567  65.3247361  24.9506081  97.5592742
  60.1592883  21.8231959  97.9334637  60.0429141  21.1476863  98.6015722
  60.2695143  21.3364333  97.1166790  62.1429911  16.3132006  96.6342675
  62.3104313  17.1812242  97.0013146  61.9527080  16.4759288  95.7103964
  62.1219132  18.7689663  97.6189342  62.0018757  19.2146714  98.4574822
  61.4271720  19.1174981  97.0602880  59.8826024  31.5393305 101.2679473
  59.8050054  32.4901130 101.3467954  59.2787668  31.1939178 101.9254399
  67.8204198  19.2411137  98.4469676  68.7322054  19.4738523  98.2717374
  67.3113845  19.8248181  97.8844755  70.3063012  25.1591393 103.1927621
  69.6214050  25.5390294 102.6424655  70.3906862  25.7686720 103.9259569
  62.1564393  26.8975458  99.9885013  62.0210068  27.7426994 100.4169861
  62.6974206  27.0994736  99.2250947  55.6093790  24.4150896 100.5612938
  56.1218311  25.2094146 100.7118503  56.2616503  23.7177187 100.4946539
  57.4188675  27.5316652 102.6435691  57.5955303  28.4534617 102.4556675
  58.2145509  27.2175072 103.0730071  65.4707139  20.4114631  97.0256341
  64.9553763  21.1819236  97.2644729  65.1984448  19.7379767  97.6489403
  70.4441413  23.1646986  98.9609515  69.6670856  22.8258145  98.5164677
  71.1232894  23.1699609  98.2864480  65.2593442  18.2841723  98.8516123
  64.9543578  18.5987872  99.7026266  66.2123885  18.3623143  98.8943456
  63.7039874  24.4431947 100.5009077  63.1761236  23.7084706 100.1882314
  63.2027377  25.2206623 100.2549045  58.7628189  17.1356074  96.8811573
  57.9265501  17.4730760  97.2020848  58.6232959  17.0005054  95.9438710
  61.8492474  22.2612157  93.5044050  60.9419536  22.0301410  93.7035199
  62.3463506  21.4649776  93.6918031  64.7560553  30.9709664  96.4240736
  64.0822252  31.2741361  97.0325694  65.1426375  31.7738744  96.0746193
  63.0280708  22.3624752  98.0268040  62.1191927  22.0783785  98.1240510
  63.0575792  22.7823830  97.1671347  68.2599975  25.9731341 101.7959207
  67.8062302  25.1322251 101.8524398  67.6293942  26.6092740 102.1333987
  66.7032915  27.8107838 102.7309025  66.9955889  28.3712895 102.0121391
  67.2131535  28.1036399 103.4862185  62.7256796  23.9033495  95.3656118
  62.2876226  23.1869354  94.9061756  63.4667237  24.1309610  94.8041210
  61.6666540  28.5888189 103.8202479  61.6242719  28.8149035 102.8911011
  62.5829239  28.3551564 103.9688280  70.8429911  22.1790692 101.4232437
  70.7047809  22.3692288 100.4953626  70.4866129  22.9410075 101.8800488
  62.9551769  31.1389336  98.6387815  63.1303524  30.6677380  99.4533438
  62.2684557  31.7655103  98.8669076  66.8468023  22.7617877  94.9588176
  66.2297194  22.0364705  94.8621229  66.3784512  23.5227237  94.6155250
  57.5212854  34.2878699 105.4127675  57.7609452  34.9197223 106.0906694
  56.6782050  33.9366739 105.6993034  58.6366569  16.9803301  94.0809480
  57.7596036  16.8592102  93.7171727  59.1124322  16.1889380  93.8288369
  61.8230495  29.3329592 101.3272001  61.0398017  29.8751272 101.4210225
  62.5223240  29.8503571 101.7266242  66.2156926  23.8995908 101.5444630
  65.2813205  24.0197371 101.3749334  66.3933595  22.9968375 101.2804639
  67.6705709  26.0857049  99.0780816  67.9465552  25.9713644  99.9874690
  66.8010207  25.6874534  99.0392989  64.3059773  30.3343400 102.7213629
  64.4882167  29.5165056 103.1841382  65.1292759  30.5511092 102.2838519
  64.6401938  29.2611585  99.9828678  65.1689704  28.7504039  99.3698840
  64.9030158  28.9454115 100.8474211  57.9957686  30.3126702 102.7426454
  57.3268061  30.7972829 102.2590494  57.8570556  30.5595922 103.6569832
  65.2731342  30.2952421 106.3272794  65.1482481  29.4942160 105.8183740
  65.9310433  30.7898614 105.8386764  64.3412684  27.8914157 104.1556697
  64.1937646  26.9630864 104.3364267  65.1666177  27.9134248 103.6713772
  67.9446805  28.7142716 105.2421569  68.8693353  28.5085577 105.1046020
  67.7762109  28.4659117 106.1510911  64.3374198  15.7451995  99.1488814
  64.5537812  16.6276632  98.8477642  63.8568265  15.3538208  98.4194456
  67.7342122  29.2328383 100.5983661  67.9078999  28.6674806  99.8457513
  68.2271013  30.0329278 100.4163151  68.7217294  28.5495148  97.6980559
  69.4168199  29.1701840  97.9167874  69.0640444  27.6990499  97.9732937
  70.6208717  25.9994853  99.2267890  71.1460041  26.3382126  98.5017210
  70.5331070  25.0641868  99.0431024  62.3049378  32.0666836 103.5863143
  61.8654368  31.5743215 104.2796000  63.0557495  31.5239804 103.3455218
  59.3136757  26.1608769  99.1343905  59.4624877  26.8444233  98.4810578
  60.1203200  26.1413859  99.6493361  62.8132163  28.6556899  96.6055653
  62.2406130  29.2747086  96.1526125  63.3864956  29.2056261  97.1395575
  66.0329422  28.9394049  97.7364235  66.9660095  28.8739611  97.9397110
  65.9452635  29.7750316  97.2778768  68.6617439  28.2559920  94.6968182
  68.5831071  27.9219783  95.5903940  69.4827106  28.7481688  94.6959655
  63.1978961  19.9917712  93.9471705  64.1438066  19.8623920  94.0160123
  62.8193206  19.2532374  94.4241133  61.3821878  17.9167688  93.8826590
  60.4753334  17.6200801  93.9589304  61.6597859  17.6197506  93.0160877
  60.1520663  14.7754624  94.0238570  61.0139827  15.1009522  94.2834387
  60.3371007  13.9886119  93.5111635  67.0878177  15.8083240 100.2230141
  66.2004032  16.0932891 100.0050336  67.5032166  15.6477004  99.3757418
  66.2321391  25.5727915  94.3178161  66.9357241  25.7777918  94.9335816
  65.5084040  26.1404677  94.5827244  67.0619201  21.3237776 100.4380431
  67.0054402  21.7806328  99.5988063  67.6147544  20.5628461 100.2603274
  68.1408088  26.0110444  96.3676621  68.9753692  25.5791643  96.1854096
  67.9792431  25.8392458  97.2953515  67.7953980  22.5142558  97.7332960
  67.7402784  22.3486829  96.7921404  67.1700036  23.2218591  97.8895150
  61.0339670  30.6919557 105.3986035  60.0835301  30.6921419 105.2850407
  61.3372156  29.9452292 104.8822070  76.7692363  36.5280095 106.4631798
  77.4070773  36.4086843 105.7595138  76.6513206  37.4760939 106.5219750
  73.5782070  36.4807524 106.3993322  73.2400581  36.3648588 105.5113857
  74.4471838  36.0798689 106.3794328  69.4368885  38.3343000 102.3890213
  68.8733750  38.2432937 101.6206501  69.3221280  37.5142904 102.8692706
  66.9833317  39.8294192 105.2274434  67.7754609  39.4885016 104.8120733
  67.2229967  39.9389167 106.1476587  75.0168444  42.0013968  97.7004678
  74.3656424  42.5868048  97.3138692  75.8112807  42.5320163  97.7599716
  68.9424071  39.0903105  98.0991813  69.7154947  38.5432092  97.9604688
  69.2949470  39.9547354  98.3106274  70.7809114  40.4179487 111.3058712
  70.4898980  41.3225118 111.1905378  71.4166098  40.4596015 112.0202781
  71.7065321  37.7956336 107.8960071  72.3028893  37.5712358 107.1817034
  71.7640292  37.0541081 108.4985519  71.2790349  35.2495771  95.7310262
  71.5315870  34.7277292  94.9693725  70.3414908  35.0861916  95.8336946
  76.3233632  34.2531549 103.5385006  77.1096721  33.8350972 103.1875423
  76.5872336  35.1577641 103.7066654  76.4943709  39.6904400  98.2373662
  75.8589542  39.7639026  98.9494567  76.1641116  40.2797998  97.5592742
  70.9986638  37.1523877  97.9334637  70.8822896  36.4768780  98.6015722
  71.1088898  36.6656251  97.1166790  73.3418179  36.6134024 101.6381327
  72.9776386  36.0864645 102.3494248  74.1985295  36.2232493 101.4647812
  72.9823666  31.6423924  96.6342675  73.1498068  32.5104160  97.0013146
  72.7920835  31.8051205  95.7103964  75.7398999  40.1040903 108.3008505
  75.4399722  41.0065941 108.1924313  75.3950058  39.8373086 109.1529658
  69.1911480  36.5554699 104.3345210  68.2661977  36.4230913 104.5422902
  69.4395893  37.3348919 104.8315152  72.9612886  34.0981581  97.6189342
  72.8412512  34.5438632  98.4574822  72.2665475  34.4466899  97.0602880
  66.5520291  36.1987973 105.1688999  66.6812672  36.4522452 106.0828411
  65.8717743  36.7915681 104.8493654  70.7219779  46.8685223 101.2679473
  70.6443808  47.8193048 101.3467954  70.1181422  46.5231095 101.9254399
  78.6597953  34.5703054  98.4469676  79.5715809  34.8030441  98.2717374
  78.1507600  35.1540099  97.8844755  77.2667535  39.5528873 105.8383257
  76.6376397  39.7174587 105.1359325  76.8793197  39.9670482 106.6094221
  81.1456767  40.4883311 103.1927621  80.4607805  40.8682212 102.6424655
  81.2300616  41.0978637 103.9259569  72.8195497  39.2903281 103.1033343
  73.2833842  39.5690984 102.3137965  72.5552295  38.3886725 102.9206433
  69.7119578  38.8374762 106.0413106  70.2820935  39.2662031 105.4030590
  70.3027690  38.5557347 106.7397291  71.7564383  35.4126433  99.9122908
  72.4588426  35.8647477 100.3796834  71.4245011  34.7710252 100.5402801
  65.4989717  33.6709986 105.2140041  64.7088771  33.9267514 104.7380152
  65.9900964  34.4858324 105.3192082  67.4504462  34.0354565 102.1723518
  66.6535625  34.1473259 102.6907014  67.2230054  34.3741217 101.3064408
  73.2810130  40.5599268 110.1206033  73.3454562  41.0219676 110.9564204
  72.5721054  39.9296633 110.2488342  63.7827420  33.9240476 107.6455032
  64.0335458  34.8087486 107.9112608  64.3186968  33.7445078 106.8730124
  72.9958147  42.2267376  99.9885013  72.8603822  43.0718912 100.4169861
  73.5367960  42.4286653  99.2250947  66.4487545  39.7442814 100.5612938
  66.9612065  40.5386064 100.7118503  67.1010258  39.0469104 100.4946539
  68.2582430  42.8608570 102.6435691  68.4349058  43.7826535 102.4556675
  69.0539263  42.5466989 103.0730071  69.3813745  44.3786744 108.6446034
  69.9321170  44.2503807 107.8723027  68.5425221  44.6781633 108.2940926
  64.4136462  38.0731468 101.3372509  65.2511684  38.4828477 101.1206216
  64.5914729  37.1330910 101.3072702  76.3100894  35.7406549  97.0256341
  75.7947517  36.5111153  97.2644729  76.0378202  35.0671685  97.6489403
  73.8948005  30.5856250 102.0841580  73.0389601  30.1963100 101.9047219
  74.3074957  30.6648210 101.2241365  81.2835168  38.4938903  98.9609515
  80.5064611  38.1550063  98.5164677  81.9626649  38.4991527  98.2864480
  76.0987197  33.6133641  98.8516123  75.7937333  33.9279790  99.7026266
  77.0517639  33.6915061  98.8943456  74.5433629  39.7723864 100.5009077
  74.0154990  39.0376624 100.1882314  74.0421132  40.5498541 100.2549045
  69.2752356  30.4343531 102.8615688  69.8496108  30.2118712 102.1288881
  69.8623339  30.5032225 103.6144289  78.3331934  36.3217257 103.6680065
  78.8463815  36.9547249 104.1701774  78.9833158  35.7218453 103.3023425
  69.6021944  32.4647992  96.8811573  68.7659256  32.8022678  97.2020848
  69.4626713  32.3296971  95.9438710  71.5775024  27.3084779 101.5890758
  70.9239436  26.9933797 100.9647372  71.5355498  26.6860520 102.3150581
  72.6886229  37.5904075  93.5044050  71.7813291  37.3593328  93.7035199
  73.1857261  36.7941694  93.6918031  75.5954308  46.3001582  96.4240736
  74.9216007  46.6033278  97.0325694  75.9820130  47.1030662  96.0746193
  74.8112764  33.7966713 105.9138405  73.8935326  34.0181660 105.7560093
  75.2272908  33.8713023 105.0550113  75.5947812  35.1958129 101.0441085
  76.3419631  35.7079526 100.7348208  75.8639402  34.8742181 101.9045479
  73.8674462  37.6916669  98.0268040  72.9585682  37.4075702  98.1240510
  73.8969546  38.1115748  97.1671347  79.0993730  41.3023259 101.7959207
  78.6456057  40.4614169 101.8524398  78.4687697  41.9384657 102.1333987
  78.0426649  32.2315245 103.0259875  77.3049406  31.7192631 103.3570117
  78.2953423  31.7915627 102.2143152  77.5426669  43.1399756 102.7309025
  77.8349643  43.7004813 102.0121391  78.0525290  43.4328317 103.4862185
  64.4362633  35.4122184 102.0083242  64.2387033  34.8191544 101.2834309
  63.8809297  35.1074394 102.7259181  72.4159356  35.3045290 104.1277835
  72.4707966  34.3519126 104.0520312  71.6050558  35.4604729 104.6119134
  73.5650550  39.2325413  95.3656118  73.1269980  38.5161272  94.9061756
  74.3060991  39.4601528  94.8041210  70.3551716  33.9222350 101.8868214
  69.5419582  34.2216520 102.2933406  70.8510711  33.5278039 102.6042696
  72.5060294  43.9180107 103.8202479  72.4636473  44.1440953 102.8911011
  73.4222993  43.6843481 103.9688280  81.6823665  37.5082610 101.4232437
  81.5441564  37.6984206 100.4953626  81.3259884  38.2701993 101.8800488
  69.8465791  31.4940705 107.5029449  70.4865170  31.3529464 106.8052412
  69.0143322  31.2075219 107.1268051  70.6226095  40.7943136 103.6164441
  71.4166694  40.2993456 103.4147016  69.9117787  40.2660999 103.2532147
  75.4420940  43.1761231 107.9676809  75.4957962  43.7452168 108.7354525
  74.5735721  43.3463116 107.6030846  66.9308859  34.9386217  99.6924194
  66.0006447  34.8770673  99.9094156  67.0266330  34.4162170  98.8960835
  66.8494408  31.4641030 102.2802436  67.1101225  32.3786363 102.1711596
  67.6711580  30.9965473 102.4299049  68.3219333  32.8778787 109.4501260
  68.9942386  32.6696150 108.8013909  67.4949119  32.6800873 109.0106493
  73.1997371  41.3672158 107.2962279  73.0608457  40.9990942 108.1688217
  72.4111967  41.8819797 107.1246236  73.7945523  46.4681254  98.6387815
  73.9697279  45.9969297  99.4533438  73.1078311  47.0947020  98.8669076
  74.7502586  40.7453760 104.6851116  74.4152419  40.7054530 105.5808766
  74.2506532  40.0798476 104.2121527  68.7246830  36.1521390 110.2103697
  68.5866628  35.4201629 110.8115236  69.6351754  36.0630290 109.9287885
  77.6861778  38.0909795  94.9588176  77.0690948  37.3656623  94.8621229
  77.2178266  38.8519155  94.6155250  71.3529131  35.8641350 109.6987377
  72.0628749  35.2234542 109.6573996  71.3098439  36.1154245 110.6213558
  68.3606608  49.6170617 105.4127675  68.6003207  50.2489141 106.0906694
  67.5175805  49.2658657 105.6993034  69.4760324  32.3095219  94.0809480
  68.5989790  32.1884020  93.7171727  69.9518077  31.5181297  93.8288369
  60.9962464  37.0972379 104.1750987  61.6833504  36.7834109 103.5872003
  60.8410593  38.0013743 103.9018239  65.7997186  31.9862575 108.6036011
  65.7155375  31.3788245 107.8686421  64.9779892  32.4771594 108.6045507
  72.8734470  45.4249739 107.8169179  72.8004642  46.2304711 108.3288484
  72.4311863  45.6241705 106.9917201  72.6624250  44.6621509 101.3272001
  71.8791772  45.2043190 101.4210225  73.3616995  45.1795489 101.7266242
  77.0550681  39.2287826 101.5444630  76.1206959  39.3489289 101.3749334
  77.2327349  38.3260293 101.2804639  72.5555869  32.6133522 103.6977891
  72.1853656  32.0604562 104.3858796  73.0514961  32.0091655 103.1452891
  70.3845067  43.0731017 110.7932909  71.0854527  43.7067500 110.9462303
  69.9140182  43.4145748 110.0328548  78.5099463  41.4148967  99.0780816
  78.7859307  41.3005561  99.9874690  77.6403962  41.0166451  99.0392989
  75.1453527  45.6635317 102.7213629  75.3275922  44.8456973 103.1841382
  75.9686513  45.8803010 102.2838519  75.4795693  44.5903503  99.9828678
  76.0083459  44.0795957  99.3698840  75.7423912  44.2746033 100.8474211
  65.9812785  42.6067372 107.7264011  66.5666222  41.8611060 107.8591916
  65.7837624  42.9171329 108.6100675  68.8351440  45.6418619 102.7426454
  68.1661816  46.1264747 102.2590494  68.6964310  45.8887840 103.6569832
  60.5730440  35.1772972 106.4468454  60.6114540  34.6436563 107.2405573
  60.0670733  34.6508178 105.8279432  64.2039018  33.9037074  99.5222386
  64.4992459  32.9947753  99.4689440  63.3027053  33.8824814  99.2003388
  76.1125096  45.6244338 106.3272794  75.9876236  44.8234078 105.8183740
  76.7704187  46.1190532 105.8386764  67.7333265  31.9793071 105.5049934
  67.0119850  32.5929039 105.3657408  68.5226520  32.5150836 105.4266580
  78.1760005  43.4253358 107.9552344  77.2290340  43.3058710 107.8830671
  78.5242778  42.5375856 108.0378606  65.9326859  31.5851172  99.6461711
  65.6039565  30.7048551  99.4636817  66.2866230  31.5298841 100.5338100
  75.1806438  43.2206075 104.1556697  75.0331400  42.2922782 104.3364267
  76.0059932  43.2426165 103.6713772  69.0468682  31.8724142 100.0137189
  69.3864755  32.4010063  99.2915797  69.4940803  32.2104548 100.7895755
  78.7840560  44.0434633 105.2421569  79.7087107  43.8377495 105.1046020
  78.6155863  43.7951035 106.1510911  71.0336829  30.3698763  98.2130481
  71.7545192  30.7480016  97.7094198  70.4102134  31.0887640  98.3165459
  75.1767952  31.0743912  99.1488814  75.3931567  31.9568550  98.8477642
  74.6962019  30.6830126  98.4194456  69.9167174  34.0329625 105.7259558
  69.7711754  34.3469929 106.6183840  69.4392377  34.6514526 105.1730457
  71.7763557  31.0232173 105.7740448  71.7625125  30.1273267 105.4372746
  72.4935985  31.0302837 106.4078734  78.5735876  44.5620301 100.5983661
  78.7472754  43.9966723  99.8457513  79.0664767  45.3621196 100.4163151
  64.3912836  36.5734970 108.6647220  63.8466304  37.3494778 108.7967494
  65.2692186  36.9205774 108.5066341  71.1800453  29.9046554 101.0428018
  71.3016364  28.9763200 101.2418906  70.8902495  29.9185240 100.1306334
  79.5611049  43.8787065  97.6980559  80.2561953  44.4993758  97.9167874
  79.9034199  43.0282416  97.9732937  81.4602472  41.3286771  99.2267890
  81.9853796  41.6674043  98.5017210  81.3724824  40.3933786  99.0431024
  73.1443132  47.3958754 103.5863143  72.7048123  46.9035133 104.2796000
  73.8951249  46.8531722 103.3455218  65.6235471  43.5870295 103.5887771
  66.4493491  43.2874067 103.2086415  65.2729523  42.8177917 104.0377560
  70.5917005  42.9396763 105.6585445  69.9697014  42.2767468 105.3587673
  71.2621871  42.9657895 104.9759092  63.8244076  41.5056621 104.5476705
  62.9875985  41.0778796 104.3660706  63.7967722  41.6989065 105.4847496
  70.1530512  41.4900686  99.1343905  70.3018632  42.1736151  98.4810578
  70.9596955  41.4705776  99.6493361  67.9083144  37.5165864 100.1404974
  67.6629186  36.6128194 100.3385184  68.0779059  37.5183015  99.1984452
  67.1778792  33.2494222  97.6391136  66.4848037  33.3238577  96.9831172
  66.9330544  32.4854565  98.1612653  73.6525917  43.9848817  96.6055653
  73.0799884  44.6039004  96.1526125  74.2258711  44.5348179  97.1395575
  76.8723177  44.2685967  97.7364235  77.8053850  44.2031529  97.9397110
  76.7846390  45.1042234  97.2778768  79.5011193  43.5851837  94.6968182
  79.4224825  43.2511701  95.5903940  80.3220860  44.0773605  94.6959655
  74.0372716  35.3209630  93.9471705  74.9831820  35.1915838  94.0160123
  73.6586960  34.5824292  94.4241133  72.2215633  33.2459606  93.8826590
  71.3147088  32.9492719  93.9589304  72.4991614  32.9489424  93.0160877
  63.1393573  34.5665969 104.3325637  62.8196357  33.7131278 104.0400011
  62.5927001  34.7814548 105.0883604  66.9173481  37.2828410 108.0495143
  67.1359490  38.2145518 108.0683177  67.3299254  36.9236385 108.8349947
  73.8377698  27.7896496 100.0370832  73.0278427  27.4443581 100.4126078
  74.5262115  27.4804039 100.6258443  70.9914417  30.1046541  94.0238570
  71.8533581  30.4301440  94.2834387  71.1764761  29.3178037  93.5111635
  63.0081833  38.1868881 106.3018758  62.3145304  37.7722834 105.7888713
  63.7554824  38.2289417 105.7052177  64.9218576  38.1187135 104.1784773
  64.8989264  38.2174822 103.2266656  65.2319212  38.9652286 104.5001939
  67.5805953  40.1763290 108.2931388  68.5349207  40.1447232 108.2261319
  67.3818477  39.7153913 109.1081614  68.1705336  38.7464406 110.8602185
  68.9898225  39.2408484 110.8837023  68.4442143  37.8296374 110.8319753
  77.9271932  31.1375158 100.2230141  77.0397787  31.4224809 100.0050336
  78.3425921  30.9768921  99.3757418  65.9356182  45.7182909 105.3101586
  65.8010650  44.9583310 104.7439584  65.5188245  46.4423809 104.8430374
  77.0715145  40.9019833  94.3178161  77.7750995  41.1069835  94.9335816
  76.3477794  41.4696595  94.5827244  77.9012956  36.6529694 100.4380431
  77.8448157  37.1098245  99.5988063  78.4541298  35.8920379 100.2603274
  69.0925308  46.6152226 105.5220028  68.9757692  47.5597659 105.4198718
  68.2717754  46.3125788 105.9105827  78.9801843  41.3402362  96.3676621
  79.8147447  40.9083560  96.1854096  78.8186186  41.1684376  97.2953515
  78.6347735  37.8434475  97.7332960  78.5796539  37.6778747  96.7921404
  78.0093790  38.5510508  97.8895150  71.9443860  27.3442584  97.3118279
  71.9322530  28.2884424  97.4686549  72.8367282  27.1612730  97.0177740
  70.1179822  47.2680488 108.7375957  71.0207069  47.3004098 109.0542452
  69.8917192  46.3380939 108.7522292  71.8733424  46.0211475 105.3986035
  70.9229055  46.0213336 105.2850407  72.1765910  45.2744209 104.8822070
  80.2762640  53.6634918 102.3890213  79.7127505  53.5724855 101.6206501
  80.1615035  52.8434822 102.8692706  79.7817826  54.4195022  98.0991813
  80.5548702  53.8724010  97.9604688  80.1343224  55.2839272  98.3106274
  82.1184103  50.5787689  95.7310262  82.3709624  50.0569210  94.9693725
  81.1808663  50.4153834  95.8336946  87.3337464  55.0196317  98.2373662
  86.6983297  55.0930944  98.9494567  87.0034870  55.6089916  97.5592742
  81.8380392  52.4815795  97.9334637  81.7216650  51.8060698  98.6015722
  81.9482652  51.9948168  97.1166790  84.1811933  51.9425942 101.6381327
  83.8170140  51.4156563 102.3494248  85.0379049  51.5524411 101.4647812
  83.8217420  46.9715841  96.6342675  83.9891822  47.8396078  97.0013146
  83.6314589  47.1343123  95.7103964  83.8006641  49.4273499  97.6189342
  83.6806266  49.8730550  98.4574822  83.1059229  49.7758816  97.0602880
  89.4991707  49.8994972  98.4469676  90.4109563  50.1322359  98.2717374
  88.9901354  50.4832016  97.8844755  82.5958137  50.7418351  99.9122908
  83.2982181  51.1939395 100.3796834  82.2638766  50.1002170 100.5402801
  76.3383471  49.0001904 105.2140041  75.5482525  49.2559432 104.7380152
  76.8294719  49.8150241 105.3192082  78.2898217  49.3646483 102.1723518
  77.4929380  49.4765177 102.6907014  78.0623809  49.7033135 101.3064408
  77.2881299  55.0734732 100.5612938  77.8005820  55.8677982 100.7118503
  77.9404012  54.3761022 100.4946539  75.2530216  53.4023386 101.3372509
  76.0905438  53.8120394 101.1206216  75.4308484  52.4622828 101.3072702
  87.1494648  51.0698467  97.0256341  86.6341272  51.8403071  97.2644729
  86.8771957  50.3963603  97.6489403  84.7341759  45.9148167 102.0841580
  83.8783356  45.5255018 101.9047219  85.1468711  45.9940128 101.2241365
  86.9380951  48.9425559  98.8516123  86.6331087  49.2571708  99.7026266
  87.8911394  49.0206979  98.8943456  80.1146111  45.7635448 102.8615688
  80.6889863  45.5410630 102.1288881  80.7017093  45.8324143 103.6144289
  80.4415698  47.7939909  96.8811573  79.6053010  48.1314596  97.2020848
  80.3020468  47.6588889  95.9438710  82.4168779  42.6376697 101.5890758
  81.7633191  42.3225714 100.9647372  82.3749253  42.0152438 102.3150581
  83.5279983  52.9195992  93.5044050  82.6207045  52.6885246  93.7035199
  84.0251015  52.1233611  93.6918031  86.4341567  50.5250046 101.0441085
  87.1813386  51.0371444 100.7348208  86.7033156  50.2034099 101.9045479
  84.7068217  53.0208587  98.0268040  83.7979436  52.7367620  98.1240510
  84.7363301  53.4407666  97.1671347  75.2756387  50.7414101 102.0083242
  75.0780787  50.1483462 101.2834309  74.7203051  50.4366311 102.7259181
  84.4044305  54.5617331  95.3656118  83.9663735  53.8453190  94.9061756
  85.1454746  54.7893446  94.8041210  81.1945471  49.2514267 101.8868214
  80.3813336  49.5508438 102.2933406  81.6904465  48.8569956 102.6042696
  77.7702613  50.2678135  99.6924194  76.8400201  50.2062591  99.9094156
  77.8660085  49.7454088  98.8960835  77.6888162  46.7932948 102.2802436
  77.9494979  47.7078281 102.1711596  78.5105334  46.3257390 102.4299049
  88.5255532  53.4201712  94.9588176  87.9084703  52.6948541  94.8621229
  88.0572021  54.1811073  94.6155250  80.3154078  47.6387137  94.0809480
  79.4383545  47.5175937  93.7171727  80.7911831  46.8473215  93.8288369
  71.8356218  52.4264296 104.1750987  72.5227258  52.1126026 103.5872003
  71.6804347  53.3305661 103.9018239  83.3949623  47.9425439 103.6977891
  83.0247411  47.3896480 104.3858796  83.8908716  47.3383573 103.1452891
  71.4124194  50.5064890 106.4468454  71.4508294  49.9728480 107.2405573
  70.9064487  49.9800095 105.8279432  75.0432772  49.2328992  99.5222386
  75.3386213  48.3239670  99.4689440  74.1420808  49.2116731  99.2003388
  78.5727019  47.3084988 105.5049934  77.8513605  47.9220956 105.3657408
  79.3620275  47.8442753 105.4266580  76.7720614  46.9143090  99.6461711
  76.4433320  46.0340468  99.4636817  77.1259984  46.8590758 100.5338100
  79.8862437  47.2016059 100.0137189  80.2258509  47.7301981  99.2915797
  80.3334557  47.5396465 100.7895755  81.8730584  45.6990681  98.2130481
  82.5938946  46.0771934  97.7094198  81.2495888  46.4179558  98.3165459
  86.0161707  46.4035830  99.1488814  86.2325321  47.2860468  98.8477642
  85.5355774  46.0122043  98.4194456  82.0194207  45.2338471 101.0428018
  82.1410118  44.3055118 101.2418906  81.7296249  45.2477157 100.1306334
  80.9924266  56.8192604  99.1343905  81.1412386  57.5028069  98.4810578
  81.7990709  56.7997694  99.6493361  78.7476899  52.8457782 100.1404974
  78.5022941  51.9420112 100.3385184  78.9172814  52.8474932  99.1984452
  78.0172547  48.5786139  97.6391136  77.3241791  48.6530494  96.9831172
  77.7724298  47.8146483  98.1612653  84.4919672  59.3140735  96.6055653
  83.9193639  59.9330922  96.1526125  85.0652465  59.8640096  97.1395575
  90.3404948  58.9143755  94.6968182  90.2618580  58.5803619  95.5903940
  91.1614615  59.4065523  94.6959655  84.8766470  50.6501547  93.9471705
  85.8225575  50.5207755  94.0160123  84.4980715  49.9116209  94.4241133
  83.0609387  48.5751524  93.8826590  82.1540843  48.2784636  93.9589304
  83.3385368  48.2781342  93.0160877  73.9787328  49.8957887 104.3325637
  73.6590112  49.0423195 104.0400011  73.4320756  50.1106465 105.0883604
  84.6771453  43.1188413 100.0370832  83.8672181  42.7735498 100.4126078
  85.3655870  42.8095957 100.6258443  81.8308172  45.4338459  94.0238570
  82.6927336  45.7593357  94.2834387  82.0158516  44.6469955  93.5111635
  88.7665686  46.4667076 100.2230141  87.8791541  46.7516726 100.0050336
  89.1819675  46.3060839  99.3757418  87.9108900  56.2311750  94.3178161
  88.6144750  56.4361753  94.9335816  87.1871549  56.7988512  94.5827244
  89.4741489  53.1726393  97.7332960  89.4190293  53.0070664  96.7921404
  88.8487545  53.8802426  97.8895150  82.7837615  42.6734502  97.3118279
  82.7716285  43.6176342  97.4686549  83.6761037  42.4904647  97.0177740
  64.1774691   3.6784173  84.4249985  63.5262670   4.2638253  84.0383999
  64.9719054   4.2090367  84.4845022  58.1030318   0.7673310  84.8237119
  58.8761194   0.2202297  84.6849995  58.4555717   1.6317559  85.0351581
  59.8826025   8.5455428  87.9924780  59.8050055   9.4963253  88.0713260
  59.2787669   8.2001300  88.6499706  62.1564394   3.9037581  86.7130320
  62.0210069   4.7489116  87.1415167  62.6974207   4.1056858  85.9496253
  55.6093792   1.4213019  87.2858245  56.1218312   2.2156269  87.4363809
  56.2616504   0.7239309  87.2191846  57.4188676   4.5378775  89.3680998
  57.5955305   5.4596740  89.1801982  58.2145510   4.2237194  89.7975378
  64.7560555   7.9771787  83.1486042  64.0822253   8.2803483  83.7571000
  65.1426377   8.7800867  82.7991500  66.7032916   4.8169960  89.4554332
  66.9955890   5.3775018  88.7366698  67.2131536   5.1098521  90.2107491
  61.6666541   5.5950312  90.5447785  61.6242720   5.8211158  89.6156317
  62.5829240   5.3613686  90.6933586  62.9551770   8.1451459  85.3633122
  63.1303525   7.6739502  86.1778744  62.2684558   8.7717225  85.5914382
  57.5212855  11.2940822  92.1372982  57.7609453  11.9259346  92.8152000
  56.6782052  10.9428862  92.4238341  61.8230497   6.3391714  88.0517307
  61.0398018   6.8813394  88.1455532  62.5223242   6.8565694  88.4511549
  67.6705710   3.0919172  85.8026122  67.9465554   2.9775766  86.7119996
  66.8010209   2.6936656  85.7638295  64.3059774   7.3405522  89.4458936
  64.4882168   6.5227178  89.9086688  65.1292760   7.5573215  89.0083826
  64.6401939   6.2673708  86.7073984  65.1689706   5.7566162  86.0944147
  64.9030159   5.9516238  87.5719517  57.9957687   7.3188824  89.4671760
  57.3268063   7.8034952  88.9835800  57.8570557   7.5658045  90.3815139
  65.2731343   7.3014543  93.0518101  65.1482483   6.5004283  92.5429046
  65.9310434   7.7960737  92.5632071  64.3412685   4.8976280  90.8802003
  64.1937647   3.9692987  91.0609573  65.1666178   4.9196370  90.3959078
  67.9446807   5.7204838  91.9666876  68.8693354   5.5147700  91.8291327
  67.7762110   5.4721239  92.8756217  67.7342123   6.2390506  87.3228967
  67.9079000   5.6736928  86.5702820  68.2271014   7.0391401  87.1408457
  68.7217295   5.5557270  84.4225866  69.4168200   6.1763963  84.6413180
  69.0640445   4.7052621  84.6978244  62.3049379   9.0728959  90.3108450
  61.8654370   8.5805338  91.0041306  63.0557496   8.5301927  90.0700525
  59.3136758   3.1670891  85.8589212  59.4624879   3.8506356  85.2055885
  60.1203202   3.1475981  86.3738668  62.8132164   5.6619022  83.3300959
  62.2406131   6.2809209  82.8771431  63.3864957   6.2118383  83.8640881
  66.0329424   5.9456172  84.4609542  66.9660097   5.8801734  84.6642417
  65.9452636   6.7812439  84.0024074  68.6617440   5.2622042  81.4213489
  68.5831072   4.9281906  82.3149247  69.4827107   5.7543810  81.4204961
  66.2321392   2.5790038  81.0423467  66.9357242   2.7840040  81.6581123
  65.5084041   3.1466800  81.3072551  61.0339671   7.6981680  92.1231342
  60.0835302   7.6983541  92.0095714  61.3372157   6.9514414  91.6067376
  76.7692365  13.5342218  93.1877104  77.4070774  13.4148965  92.4840444
  76.6513207  14.4823062  93.2465056  73.5782071  13.4869646  93.1238629
  73.2400582  13.3710711  92.2359164  74.4471839  13.0860811  93.1039635
  69.4368887  15.3405123  89.1135520  68.8733752  15.2495059  88.3451808
  69.3221282  14.5205027  89.5938012  66.9833318  16.8356314  91.9519740
  67.7754610  16.4947139  91.5366040  67.2229969  16.9451289  92.8721894
  75.0168445  19.0076090  84.4249985  74.3656425  19.5930171  84.0383999
  75.8112808  19.5382285  84.4845022  68.9424072  16.0965227  84.8237119
  69.7154948  15.5494214  84.6849995  69.2949471  16.9609477  85.0351581
  70.7809115  17.4241610  98.0304018  70.4898981  18.3287240  97.9150685
  71.4166099  17.4658137  98.7448088  71.7065322  14.8018458  94.6205378
  72.3028894  14.5774481  93.9062341  71.7640293  14.0603204  95.2230826
  71.2790350  12.2557893  82.4555569  71.5315871  11.7339415  81.6939032
  70.3414909  12.0924039  82.5582253  76.3233633  11.2593672  90.2630312
  77.1096722  10.8413095  89.9120729  76.5872337  12.1639764  90.4311961
  76.4943710  16.6966522  84.9618969  75.8589543  16.7701149  85.6739874
  76.1641117  17.2860121  84.2838048  70.9986639  14.1585999  84.6579944
  70.8822897  13.4830903  85.3261028  71.1088899  13.6718373  83.8412097
  73.3418180  13.6196147  88.3626633  72.9776387  13.0926768  89.0739555
  74.1985296  13.2294616  88.1893119  72.9823667   8.6486046  83.3587982
  73.1498069   9.5166283  83.7258453  72.7920836   8.8113328  82.4349271
  75.7399000  17.1103025  95.0253812  75.4399723  18.0128064  94.9169619
  75.3950060  16.8435208  95.8774965  69.1911482  13.5616822  91.0590517
  68.2661978  13.4293036  91.2668208  69.4395895  14.3411041  91.5560459
  72.9612888  11.1043704  84.3434649  72.8412513  11.5500755  85.1820129
  72.2665476  11.4529021  83.7848187  66.5520293  13.2050096  91.8934306
  66.6812674  13.4584574  92.8073717  65.8717744  13.7977804  91.5738961
  70.7219780  23.8747345  87.9924780  70.6443810  24.8255171  88.0713260
  70.1181423  23.5293218  88.6499706  78.6597954  11.5765177  85.1714983
  79.5715810  11.8092564  84.9962680  78.1507601  12.1602221  84.6090061
  77.2667536  16.5590995  92.5628564  76.6376399  16.7236709  91.8604632
  76.8793198  16.9732605  93.3339528  81.1456768  17.4945433  89.9172928
  80.4607806  17.8744335  89.3669961  81.2300617  18.1040760  90.6504876
  72.8195498  16.2965403  89.8278649  73.2833844  16.5753106  89.0383272
  72.5552296  15.3948848  89.6451740  69.7119579  15.8436885  92.7658412
  70.2820936  16.2724153  92.1275897  70.3027691  15.5619470  93.4642598
  71.7564384  12.4188556  86.6368214  72.4588427  12.8709599  87.1042141
  71.4245013  11.7772375  87.2648107  65.4989718  10.6772108  91.9385348
  64.7088772  10.9329637  91.4625459  65.9900965  11.4920446  92.0437388
  67.4504463  11.0416688  88.8968825  66.6535627  11.1535382  89.4152320
  67.2230056  11.3803340  88.0309715  73.2810131  17.5661391  96.8451339
  73.3454564  18.0281798  97.6809511  72.5721055  16.9358756  96.9733649
  63.7827421  10.9302599  94.3700339  64.0335459  11.8149609  94.6357915
  64.3186969  10.7507200  93.5975431  72.9958149  19.2329498  86.7130320
  72.8603824  20.0781034  87.1415167  73.5367961  19.4348776  85.9496253
  66.4487546  16.7504936  87.2858245  66.9612067  17.5448187  87.4363809
  67.1010259  16.0531227  87.2191846  68.2582431  19.8670693  89.3680998
  68.4349059  20.7888657  89.1801982  69.0539264  19.5529112  89.7975378
  69.3813746  21.3848867  95.3691340  69.9321171  21.2565930  94.5968334
  68.5425222  21.6843756  95.0186233  64.4136463  15.0793591  88.0617815
  65.2511685  15.4890599  87.8451523  64.5914731  14.1393033  88.0318009
  76.3100895  12.7468671  83.7501648  75.7947518  13.5173276  83.9890036
  76.0378203  12.0733808  84.3734710  73.8948006   7.5918372  88.8086887
  73.0389602   7.2025223  88.6292525  74.3074958   7.6710333  87.9486672
  81.2835169  15.5001026  85.6854822  80.5064612  15.1612186  85.2409984
  81.9626650  15.5053649  85.0109787  76.0987198  10.6195764  85.5761429
  75.7937334  10.9341913  86.4271572  77.0517640  10.6977183  85.6188762
  74.5433630  16.7785987  87.2254383  74.0154992  16.0438746  86.9127621
  74.0421133  17.5560663  86.9794352  69.2752358   7.4405653  89.5860995
  69.8496110   7.2180835  88.8534188  69.8623340   7.5094348  90.3389596
  78.3331935  13.3279380  90.3925371  78.8463817  13.9609372  90.8947081
  78.9833159  12.7280576  90.0268731  69.6021945   9.4710114  83.6056880
  68.7659257   9.8084801  83.9266155  69.4626714   9.3359094  82.6684017
  72.6886230  14.5966197  80.2289356  71.7813292  14.3655451  80.4280505
  73.1857262  13.8003816  80.4163338  75.5954309  23.3063704  83.1486042
  74.9216008  23.6095401  83.7571000  75.9820131  24.1092785  82.7991500
  74.8112766  10.8028836  92.6383712  73.8935327  11.0243783  92.4805400
  75.2272909  10.8775146  91.7795419  75.5947813  12.2020251  87.7686392
  76.3419632  12.7141648  87.4593514  75.8639403  11.8804304  88.6290786
  73.8674464  14.6978792  84.7513346  72.9585683  14.4137825  84.8485816
  73.8969547  15.1177871  83.8916653  79.0993731  18.3085381  88.5204514
  78.6456058  17.4676291  88.5769704  78.4687698  18.9446780  88.8579294
  78.0426651   9.2377368  89.7505181  77.3049407   8.7254754  90.0815424
  78.2953424   8.7977749  88.9388458  77.5426670  20.1461878  89.4554332
  77.8349645  20.7066935  88.7366698  78.0525291  20.4390439  90.2107491
  64.4362634  12.4184306  88.7328549  64.2387034  11.8253667  88.0079615
  63.8809298  12.1136516  89.4504487  72.4159358  12.3107413  90.8523142
  72.4707967  11.3581249  90.7765618  71.6050560  12.4666852  91.3364440
  73.5650551  16.2387536  82.0901425  73.1269981  15.5223395  81.6307062
  74.3060992  16.4663650  81.5286516  70.3551718  10.9284472  88.6113521
  69.5419583  11.2278643  89.0178713  70.8510712  10.5340161  89.3288003
  72.5060296  20.9242229  90.5447785  72.4636474  21.1503076  89.6156317
  73.4222994  20.6905604  90.6933586  81.6823666  14.5144733  88.1477744
  81.5441565  14.7046329  87.2198933  81.3259885  15.2764116  88.6045795
  69.8465792   8.5002828  94.2274756  70.4865172   8.3591587  93.5297719
  69.0143323   8.2137341  93.8513358  70.6226096  17.8005258  90.3409748
  71.4166695  17.3055578  90.1392323  69.9117789  17.2723121  89.9777454
  75.4420941  20.1823354  94.6922116  75.4957963  20.7514290  95.4599832
  74.5735722  20.3525239  94.3276153  66.9308860  11.9448340  86.4169501
  66.0006448  11.8832795  86.6339463  67.0266332  11.4224293  85.6206142
  66.8494409   8.4703153  89.0047742  67.1101226   9.3848486  88.8956903
  67.6711581   8.0027595  89.1544355  68.3219334   9.8840910  96.1746567
  68.9942388   9.6758272  95.5259216  67.4949121   9.6862996  95.7351799
  73.1997372  18.3734280  94.0207585  73.0608458  18.0053065  94.8933523
  72.4111969  18.8881920  93.8491543  73.7945524  23.4743377  85.3633122
  73.9697280  23.0031420  86.1778744  73.1078312  24.1009143  85.5914382
  74.7502587  17.7515883  91.4096423  74.4152420  17.7116653  92.3054073
  74.2506533  17.0860599  90.9366833  68.7246831  13.1583513  96.9349004
  68.5866629  12.4263752  97.5360543  69.6351755  13.0692413  96.6533192
  77.6861779  15.0971917  81.6833483  77.0690950  14.3718745  81.5866535
  77.2178268  15.8581278  81.3400557  71.3529132  12.8703472  96.4232684
  72.0628751  12.2296665  96.3819302  71.3098440  13.1216367  97.3458865
  68.3606610  26.6232739  92.1372982  68.6003208  27.2551264  92.8152000
  67.5175806  26.2720780  92.4238341  69.4760325   9.3157342  80.8054787
  68.5989791   9.1946142  80.4417034  69.9518078   8.5243420  80.5533676
  60.9962465  14.1034501  90.8996294  61.6833505  13.7896231  90.3117309
  60.8410594  15.0075866  90.6263545  65.7997187   8.9924698  95.3281318
  65.7155376   8.3850367  94.5931728  64.9779894   9.4833716  95.3290814
  72.8734471  22.4311862  94.5414486  72.8004643  23.2366833  95.0533790
  72.4311865  22.6303828  93.7162507  72.6624251  21.6683632  88.0517307
  71.8791773  22.2105312  88.1455532  73.3616996  22.1857612  88.4511549
  75.3333155  22.3298696  96.6972644  76.0461127  22.9646161  96.6248546
  74.8423184  22.4262562  95.8812646  77.0550682  16.2349949  88.2689936
  76.1206961  16.3551411  88.0994640  77.2327350  15.3322415  88.0049946
  72.5555870   9.6195644  90.4223197  72.1853657   9.0666685  91.1104103
  73.0514962   9.0153778  89.8698197  70.3845068  20.0793139  97.5178215
  71.0854528  20.7129622  97.6707610  69.9140183  20.4207871  96.7573855
  78.5099464  18.4211089  85.8026122  78.7859308  18.3067684  86.7119996
  77.6403963  18.0228574  85.7638295  75.1453528  22.6697440  89.4458936
  75.3275923  21.8519096  89.9086688  75.9686514  22.8865132  89.0083826
  75.4795694  21.5965625  86.7073984  76.0083460  21.0858080  86.0944147
  75.7423913  21.2808155  87.5719517  65.9812787  19.6129494  94.4509318
  66.5666223  18.8673182  94.5837222  65.7837625  19.9233451  95.3345982
  68.8351442  22.6480742  89.4671760  68.1661817  23.1326869  88.9835800
  68.6964311  22.8949962  90.3815139  60.5730441  12.1835095  93.1713761
  60.6114541  11.6498685  93.9650879  60.0670734  11.6570300  92.5524738
  72.9756710  24.6824485  96.0654419  73.5275018  24.8456107  96.8303504
  73.3162904  25.2728923  95.3934444  64.2039019  10.9099197  86.2467693
  64.4992460  10.0009875  86.1934746  63.3027055  10.8886936  85.9248695
  76.1125098  22.6306461  93.0518101  75.9876237  21.8296201  92.5429046
  76.7704189  23.1252654  92.5632071  67.7333266   8.9855193  92.2295241
  67.0119852   9.5991161  92.0902714  68.5226522   9.5212958  92.1511887
  78.1760006  20.4315481  94.6797651  77.2290342  20.3120832  94.6075978
  78.5242779  19.5437979  94.7623912  65.9326860   8.5913294  86.3707018
  65.6039567   7.7110673  86.1882124  66.2866231   8.5360963  87.2583407
  75.1806439  20.2268197  90.8802003  75.0331402  19.2984905  91.0609573
  76.0059933  20.2488288  90.3959078  69.0468684   8.8786264  86.7382495
  69.3864756   9.4072186  86.0161104  69.4940804   9.2166670  87.5141062
  78.7840561  21.0496756  91.9666876  79.7087109  20.8439617  91.8291327
  78.6155865  20.8013157  92.8756217  71.0336831   7.3760886  84.9375788
  71.7545193   7.7542139  84.4339505  70.4102135   8.0949763  85.0410766
  75.1767954   8.0806035  85.8734120  75.3931568   8.9630673  85.5722949
  74.6962021   7.6892248  85.1439762  69.9167175  11.0391748  92.4504865
  69.7711756  11.3532051  93.3429147  69.4392379  11.6576648  91.8975764
  71.7763558   8.0294296  92.4985755  71.7625127   7.1335389  92.1618053
  72.4935986   8.0364960  93.1324041  78.5735877  21.5682423  87.3228967
  78.7472755  21.0028846  86.5702820  79.0664769  22.3683318  87.1408457
  64.3912837  13.5797092  95.3892526  63.8466305  14.3556900  95.5212801
  65.2692187  13.9267897  95.2311648  71.1800454   6.9108676  87.7673325
  71.3016365   5.9825323  87.9664212  70.8902496   6.9247362  86.8551640
  79.5611050  20.8849188  84.4225866  80.2561954  21.5055880  84.6413180
  79.9034200  20.0344539  84.6978244  81.4602473  18.3348893  85.9513196
  81.9853797  18.6736166  85.2262516  81.3724826  17.3995909  85.7676331
  73.1222522  22.2482967  98.0803073  73.4309648  22.0032114  98.9525773
  73.9198004  22.4529605  97.5921943  73.1443134  24.4020877  90.3108450
  72.7048124  23.9097255  91.0041306  73.8951251  23.8593844  90.0700525
  65.6235473  20.5932417  90.3133078  66.4493493  20.2936189  89.9331721
  65.2729525  19.8240040  90.7622866  70.5917006  19.9458886  92.3830751
  69.9697015  19.2829591  92.0832979  71.2621873  19.9720018  91.7004399
  63.8244078  18.5118744  91.2722011  62.9875986  18.0840918  91.0906013
  63.7967723  18.7051187  92.2092802  70.1530513  18.4962809  85.8589212
  70.3018633  19.1798273  85.2055885  70.9596956  18.4767899  86.3738668
  67.9083146  14.5227987  86.8650281  67.6629188  13.6190317  87.0630491
  68.0779060  14.5245137  85.9229759  67.1778793  10.2556344  84.3636442
  66.4848038  10.3300699  83.7076478  66.9330545   9.4916688  84.8857959
  73.6525918  20.9910939  83.3300959  73.0799885  21.6101127  82.8771431
  74.2258712  21.5410301  83.8640881  76.8723178  21.2748090  84.4609542
  77.8053851  21.2093651  84.6642417  76.7846391  22.1104356  84.0024074
  79.5011195  20.5913960  81.4213489  79.4224826  20.2573824  82.3149247
  80.3220862  21.0835728  81.4204961  74.0372717  12.3271752  80.6717012
  74.9831822  12.1977960  80.7405430  73.6586962  11.5886414  81.1486440
  72.2215634  10.2521729  80.6071897  71.3147089   9.9554841  80.6834611
  72.4991615   9.9551547  79.7406183  63.1393574  11.5728092  91.0570943
  62.8196359  10.7193400  90.7645317  62.5927003  11.7876670  91.8128911
  66.9173482  14.2890533  94.7740450  67.1359492  15.2207641  94.7928484
  67.3299256  13.9298507  95.5595254  70.9914419   7.1108664  80.7483876
  71.8533583   7.4363562  81.0079694  71.1764763   6.3240160  80.2356942
  63.0081834  15.1931004  93.0264065  62.3145306  14.7784956  92.5134019
  63.7554825  15.2351540  92.4297484  64.9218577  15.1249257  90.9030080
  64.8989265  15.2236945  89.9511963  65.2319213  15.9714408  91.2247246
  67.5805955  17.1825412  95.0176694  68.5349208  17.1509355  94.9506626
  67.3818478  16.7216036  95.8326920  68.1705337  15.7526528  97.5847492
  68.9898226  16.2470607  97.6082329  68.4442145  14.8358497  97.5565059
  77.9271933   8.1437281  86.9475447  77.0397788   8.4286931  86.7295642
  78.3425922   7.9831044  86.1002724  65.9356184  22.7245032  92.0346892
  65.8010651  21.9645433  91.4684890  65.5188246  23.4485932  91.5675681
  77.0715147  17.9081955  81.0423467  77.7750997  18.1131958  81.6581123
  76.3477795  18.4758717  81.3072551  77.9012957  13.6591817  87.1625738
  77.8448158  14.1160368  86.3233370  78.4541299  12.8982501  86.9848580
  69.0925309  23.6214349  92.2465335  68.9757694  24.5659781  92.1444025
  68.2717756  23.3187910  92.6351134  78.9801844  18.3464485  83.0921927
  79.8147448  17.9145683  82.9099402  78.8186187  18.1746498  84.0198822
  78.6347736  14.8496598  84.4578267  78.5796540  14.6840869  83.5166711
  78.0093791  15.5572631  84.6140457  70.1179824  24.2742611  95.4621263
  71.0207070  24.3066221  95.7787758  69.8917194  23.3443062  95.4767599
  71.8733426  23.0273597  92.1231342  70.9229057  23.0275459  92.0095714
  72.1765912  22.2806332  91.6067376  87.6086119  28.8634136  93.1877104
  88.2464529  28.7440883  92.4840444  87.4906962  29.8114980  93.2465056
  84.4175825  28.8161564  93.1238629  84.0794337  28.7002628  92.2359164
  85.2865593  28.4152729  93.1039635  80.2762641  30.6697040  89.1135520
  79.7127506  30.5786977  88.3451808  80.1615036  29.8496945  89.5938012
  77.8227073  32.1648232  91.9519740  78.6148365  31.8239056  91.5366040
  78.0623723  32.2743207  92.8721894  85.8562200  34.3368008  84.4249985
  85.2050179  34.9222088  84.0383999  86.6506563  34.8674203  84.4845022
  79.7817827  31.4257145  84.8237119  80.5548703  30.8786132  84.6849995
  80.1343226  32.2901394  85.0351581  81.6202869  32.7533527  98.0304018
  81.3292735  33.6579158  97.9150685  82.2559854  32.7950055  98.7448088
  82.5459076  30.1310376  94.6205378  83.1422649  29.9066398  93.9062341
  82.6034048  29.3895121  95.2230826  82.1184105  27.5849811  82.4555569
  82.3709625  27.0631332  81.6939032  81.1808664  27.4215957  82.5582253
  87.1627388  26.5885590  90.2630312  87.9490477  26.1705013  89.9120729
  87.4266092  27.4931682  90.4311961  87.3337465  32.0258440  84.9618969
  86.6983298  32.0993066  85.6739874  87.0034871  32.6152039  84.2838048
  81.8380393  29.4877917  84.6579944  81.7216652  28.8122820  85.3261028
  81.9482653  29.0010291  83.8412097  84.1811934  28.9488064  88.3626633
  83.8170142  28.4218685  89.0739555  85.0379050  28.5586533  88.1893119
  83.8217421  23.9777964  83.3587982  83.9891824  24.8458200  83.7258453
  83.6314590  24.1405246  82.4349271  86.5792755  32.4394943  95.0253812
  86.2793478  33.3419982  94.9169619  86.2343814  32.1727126  95.8774965
  80.0305236  28.8908740  91.0590517  79.1055732  28.7584954  91.2668208
  80.2789649  29.6702959  91.5560459  83.8006642  26.4335621  84.3434649
  83.6806267  26.8792672  85.1820129  83.1059231  26.7820939  83.7848187
  77.3914047  28.5342013  91.8934306  77.5206428  28.7876492  92.8073717
  76.7111498  29.1269721  91.5738961  81.5613534  39.2039263  87.9924780
  81.4837564  40.1547088  88.0713260  80.9575178  38.8585136  88.6499706
  89.4991708  26.9057095  85.1714983  90.4109564  27.1384481  84.9962680
  88.9901355  27.4894139  84.6090061  88.1061291  31.8882913  92.5628564
  87.4770153  32.0528627  91.8604632  87.7186953  32.3024523  93.3339528
  91.9850523  32.8237351  89.9172928  91.3001561  33.2036252  89.3669961
  92.0694372  33.4332678  90.6504876  83.6589253  31.6257321  89.8278649
  84.1227598  31.9045024  89.0383272  83.3946051  30.7240766  89.6451740
  80.5513334  31.1728803  92.7658412  81.1214691  31.6016071  92.1275897
  81.1421445  30.8911387  93.4642598  82.5958139  27.7480474  86.6368214
  83.2982182  28.2001517  87.1042141  82.2638767  27.1064292  87.2648107
  76.3383473  26.0064026  91.9385348  75.5482527  26.2621555  91.4625459
  76.8294720  26.8212364  92.0437388  78.2898218  26.3708605  88.8968825
  77.4929381  26.4827300  89.4152320  78.0623810  26.7095258  88.0309715
  84.1203886  32.8953309  96.8451339  84.1848318  33.3573716  97.6809511
  83.4114809  32.2650674  96.9733649  74.6221176  26.2594517  94.3700339
  74.8729214  27.1441527  94.6357915  75.1580724  26.0799118  93.5975431
  83.8351903  34.5621416  86.7130320  83.6997578  35.4072952  87.1415167
  84.3761716  34.7640694  85.9496253  77.2881301  32.0796854  87.2858245
  77.8005821  32.8740104  87.4363809  77.9404013  31.3823145  87.2191846
  79.0976185  35.1962610  89.3680998  79.2742814  36.1180575  89.1801982
  79.8933019  34.8821030  89.7975378  78.3828542  27.2427242  99.2443161
  78.2682057  26.3412500  99.5450260  77.5273060  27.4890939  98.8927978
  80.2207501  36.7140784  95.3691340  80.7714926  36.5857848  94.5968334
  79.3818977  37.0135673  95.0186233  75.2530217  30.4085508  88.0617815
  76.0905439  30.8182517  87.8451523  75.4308485  29.4684951  88.0318009
  87.1494650  28.0760589  83.7501648  86.6341273  28.8465194  83.9890036
  86.8771958  27.4025725  84.3734710  84.7341761  22.9210290  88.8086887
  83.8783357  22.5317140  88.6292525  85.1468712  23.0002251  87.9486672
  92.1228924  30.8292944  85.6854822  91.3458366  30.4904103  85.2409984
  92.8020405  30.8345567  85.0109787  86.9380953  25.9487681  85.5761429
  86.6331088  26.2633830  86.4271572  87.8911395  26.0269101  85.6188762
  85.3827385  32.1077905  87.2254383  84.8548746  31.3730664  86.9127621
  84.8814887  32.8852581  86.9794352  80.1146112  22.7697571  89.5860995
  80.6889864  22.5472752  88.8534188  80.7017095  22.8386265  90.3389596
  89.1725689  28.6571298  90.3925371  89.6857571  29.2901290  90.8947081
  89.8226913  28.0572493  90.0268731  80.4415699  24.8002032  83.6056880
  79.6053012  25.1376718  83.9266155  80.3020469  24.6651012  82.6684017
  82.4168780  19.6438820  88.3136064  81.7633192  19.3287837  87.6892679
  82.3749254  19.0214560  89.0395887  83.5279985  29.9258115  80.2289356
  82.6207046  29.6947368  80.4280505  84.0251017  29.1295734  80.4163338
  86.4348064  38.6355622  83.1486042  85.7609762  38.9387319  83.7571000
  86.8213886  39.4384702  82.7991500  85.6506520  26.1320753  92.6383712
  84.7329082  26.3535700  92.4805400  86.0666664  26.2067064  91.7795419
  86.4341568  27.5312169  87.7686392  87.1813387  28.0433566  87.4593514
  86.7033158  27.2096222  88.6290786  84.7068218  30.0270710  84.7513346
  83.7979437  29.7429742  84.8485816  84.7363302  30.4469788  83.8916653
  89.9387486  33.6377299  88.5204514  89.4849813  32.7968209  88.5769704
  89.3081452  34.2738698  88.8579294  88.8820405  24.5669285  89.7505181
  88.1443162  24.0546671  90.0815424  89.1347179  24.1269667  88.9388458
  88.3820425  35.4753796  89.4554332  88.6743399  36.0358853  88.7366698
  88.8919045  35.7682357  90.2107491  75.2756389  27.7476224  88.7328549
  75.0780788  27.1545584  88.0079615  74.7203053  27.4428434  89.4504487
  83.2553112  27.6399330  90.8523142  83.3101722  26.6873167  90.7765618
  82.4444314  27.7958769  91.3364440  84.4044306  31.5679453  82.0901425
  83.9663736  30.8515312  81.6307062  85.1454747  31.7955568  81.5286516
  81.1945472  26.2576390  88.6113521  80.3813338  26.5570561  89.0178713
  81.6904466  25.8632079  89.3288003  83.3454050  36.2534147  90.5447785
  83.3030229  36.4794993  89.6156317  84.2616749  36.0197522  90.6933586
  92.5217421  29.8436650  88.1477744  92.3835319  30.0338246  87.2198933
  92.1653640  30.6056033  88.6045795  80.6859547  23.8294746  94.2274756
  81.3258926  23.6883505  93.5297719  79.8537077  23.5429259  93.8513358
  81.4619851  33.1297176  90.3409748  82.2560449  32.6347496  90.1392323
  80.7511543  32.6015039  89.9777454  86.2814695  35.5115271  94.6922116
  86.3351718  36.0806208  95.4599832  85.4129477  35.6817157  94.3276153
  77.7702614  27.2740258  86.4169501  76.8400202  27.2124713  86.6339463
  77.8660086  26.7516210  85.6206142  77.6888163  23.7995071  89.0047742
  77.9494981  24.7140404  88.8956903  78.5105336  23.3319513  89.1544355
  79.1613089  25.2132828  96.1746567  79.8336142  25.0050190  95.5259216
  78.3342875  25.0154914  95.7351799  84.0391127  33.7026198  94.0207585
  83.9002212  33.3344982  94.8933523  83.2505723  34.2173837  93.8491543
  84.6339279  38.8035294  85.3633122  84.8091034  38.3323338  86.1778744
  83.9472067  39.4301061  85.5914382  85.5896342  33.0807801  91.4096423
  85.2546175  33.0408571  92.3054073  85.0900288  32.4152517  90.9366833
  79.5640586  28.4875431  96.9349004  79.4260384  27.7555669  97.5360543
  80.4745509  28.3984331  96.6533192  88.5255534  30.4263835  81.6833483
  87.9084704  29.7010663  81.5866535  88.0572022  31.1873195  81.3400557
  82.1922887  28.1995390  96.4232684  82.9022505  27.5588582  96.3819302
  82.1492195  28.4508285  97.3458865  79.2000364  41.9524657  92.1372982
  79.4396962  42.5843181  92.8152000  78.3569561  41.6012697  92.4238341
  80.3154079  24.6449259  80.8054787  79.4383546  24.5238060  80.4417034
  80.7911833  23.8535338  80.5533676  71.8356220  29.4326419  90.8996294
  72.5227259  29.1188149  90.3117309  71.6804348  30.3367784  90.6263545
  76.6390942  24.3216616  95.3281318  76.5549131  23.7142285  94.5931728
  75.8173648  24.8125634  95.3290814  83.7128226  37.7603780  94.5414486
  83.6398397  38.5658751  95.0533790  83.2705619  37.9595745  93.7162507
  83.5018006  36.9975550  88.0517307  82.7185527  37.5397230  88.1455532
  84.2010751  37.5149529  88.4511549  86.1726909  37.6590614  96.6972644
  86.8854882  38.2938078  96.6248546  85.6816938  37.7554480  95.8812646
  87.8944436  31.5641866  88.2689936  86.9600715  31.6843329  88.0994640
  88.0721105  30.6614333  88.0049946  83.3949624  24.9487562  90.4223197
  83.0247412  24.3958602  91.1104103  83.8908717  24.3445696  89.8698197
  81.2238823  35.4085057  97.5178215  81.9248282  36.0421540  97.6707610
  80.7533938  35.7499789  96.7573855  89.3493219  33.7503007  85.8026122
  89.6253063  33.6359601  86.7119996  88.4797718  33.3520492  85.7638295
  85.9847283  37.9989358  89.4458936  86.1669677  37.1811014  89.9086688
  86.8080269  38.2157050  89.0083826  86.3189448  36.9257543  86.7073984
  86.8477215  36.4149997  86.0944147  86.5817668  36.6100073  87.5719517
  76.8206541  34.9421412  94.4509318  77.4059978  34.1965100  94.5837222
  76.6231379  35.2525369  95.3345982  79.6745196  37.9772660  89.4671760
  79.0055572  38.4618787  88.9835800  79.5358066  38.2241880  90.3815139
  71.4124196  27.5127012  93.1713761  71.4508295  26.9790603  93.9650879
  70.9064489  26.9862218  92.5524738  83.8150465  40.0116403  96.0654419
  84.3668773  40.1748025  96.8303504  84.1556658  40.6020841  95.3934444
  78.7914958  22.3591553  96.6676303  78.8556285  23.2206384  96.2553701
  78.7282078  21.7465555  95.9348662  75.0432773  26.2391115  86.2467693
  75.3386214  25.3301793  86.1934746  74.1420809  26.2178854  85.9248695
  86.9518852  37.9598379  93.0518101  86.8269992  37.1588118  92.5429046
  87.6097943  38.4544572  92.5632071  78.5727020  24.3147111  92.2295241
  77.8513606  24.9283079  92.0902714  79.3620276  24.8504876  92.1511887
  89.0153760  35.7607399  94.6797651  88.0684096  35.6412750  94.6075978
  89.3636534  34.8729897  94.7623912  76.7720615  23.9205212  86.3707018
  76.4433321  23.0402591  86.1882124  77.1259986  23.8652881  87.2583407
  86.0200194  35.5560115  90.8802003  85.8725156  34.6276822  91.0609573
  86.8453687  35.5780206  90.3959078  79.8862438  24.2078182  86.7382495
  80.2258511  24.7364103  86.0161104  80.3334559  24.5458588  87.5141062
  89.6234316  36.3788674  91.9666876  90.5480863  36.1731535  91.8291327
  89.4549619  36.1305075  92.8756217  81.8730585  22.7052804  84.9375788
  82.5938948  23.0834056  84.4339505  81.2495889  23.4241680  85.0410766
  86.0161708  23.4097953  85.8734120  86.2325322  24.2922590  85.5722949
  85.5355775  23.0184166  85.1439762  80.7560929  26.3683666  92.4504865
  80.6105510  26.6823969  93.3429147  80.2786133  26.9868566  91.8975764
  82.6157312  23.3586214  92.4985755  82.6018881  22.4627307  92.1618053
  83.3329740  23.3656877  93.1324041  89.4129632  36.8974341  87.3228967
  89.5866509  36.3320764  86.5702820  89.9058523  37.6975236  87.1408457
  75.2306592  28.9089010  95.3892526  74.6860060  29.6848818  95.5212801
  76.1085942  29.2559815  95.2311648  82.0194208  22.2400594  87.7673325
  82.1410119  21.3117240  87.9664212  81.7296251  22.2539280  86.8551640
  90.4004804  36.2141105  84.4225866  91.0955709  36.8347798  84.6413180
  90.7427954  35.3636457  84.6978244  76.0172614  28.0358906  98.2822683
  75.2754350  28.1841542  98.8687314  75.6965358  28.2967172  97.4189432
  92.2996227  33.6640811  85.9513196  92.8247552  34.0028084  85.2262516
  92.2118580  32.7287826  85.7676331  83.9616276  37.5774885  98.0803073
  84.2703403  37.3324031  98.9525773  84.7591758  37.7821523  97.5921943
  83.9836888  39.7312794  90.3108450  83.5441878  39.2389173  91.0041306
  84.7345005  39.1885762  90.0700525  76.4629227  35.9224335  90.3133078
  77.2887247  35.6228107  89.9331721  76.1123279  35.1531958  90.7622866
  81.4310760  35.2750803  92.3830751  80.8090770  34.6121508  92.0832979
  82.1015627  35.3011935  91.7004399  74.6637832  33.8410662  91.2722011
  73.8269741  33.4132836  91.0906013  74.6361478  34.0343105  92.2092802
  80.9924267  33.8254727  85.8589212  81.1412388  34.5090191  85.2055885
  81.7990711  33.8059817  86.3738668  78.7476900  29.8519904  86.8650281
  78.5022942  28.9482234  87.0630491  78.9172815  29.8537055  85.9229759
  78.0172548  25.5848262  84.3636442  77.3241793  25.6592617  83.7076478
  77.7724300  24.8208606  84.8857959  84.4919673  36.3202857  83.3300959
  83.9193640  36.9393044  82.8771431  85.0652466  36.8702219  83.8640881
  87.7116933  36.6040007  84.4609542  88.6447606  36.5385569  84.6642417
  87.6240145  37.4396274  84.0024074  90.3404949  35.9205878  81.4213489
  90.2618581  35.5865741  82.3149247  91.1614616  36.4127646  81.4204961
  84.8766471  27.6563670  80.6717012  85.8225576  27.5269878  80.7405430
  84.4980716  26.9178332  81.1486440  83.0609388  25.5813646  80.6071897
  82.1540844  25.2846759  80.6834611  83.3385369  25.2843464  79.7406183
  73.9787329  26.9020010  91.0570943  73.6590113  26.0485318  90.7645317
  73.4320757  27.1168588  91.8128911  77.7567236  29.6182451  94.7740450
  77.9753246  30.5499559  94.7928484  78.1693010  29.2590425  95.5595254
  84.6771454  20.1250536  86.7616138  83.8672182  19.7797621  87.1371384
  85.3655871  19.8158080  87.3503750  81.8308173  22.4400582  80.7483876
  82.6927337  22.7655480  81.0079694  82.0158517  21.6532077  80.2356942
  73.8475589  30.5222921  93.0264065  73.1539060  30.1076874  92.5134019
  74.5948580  30.5643458  92.4297484  75.7612331  30.4541175  90.9030080
  75.7383019  30.5528862  89.9511963  76.0712968  31.3006326  91.2247246
  78.4199709  32.5117330  95.0176694  79.3742963  32.4801272  94.9506626
  78.2212233  32.0507954  95.8326920  79.0099091  31.0818446  97.5847492
  79.8291980  31.5762525  97.6082329  79.2835899  30.1650414  97.5565059
  88.7665688  23.4729198  86.9475447  87.8791543  23.7578849  86.7295642
  89.1819677  23.3122962  86.1002724  76.7749938  38.0536950  92.0346892
  76.6404406  37.2937350  91.4684890  76.3582000  38.7777849  91.5675681
  87.9108901  33.2373873  81.0423467  88.6144751  33.4423876  81.6581123
  87.1871550  33.8050635  81.3072551  88.7406711  28.9883734  87.1625738
  88.6841913  29.4452286  86.3233370  89.2935054  28.2274419  86.9848580
  79.9319064  38.9506267  92.2465335  79.8151448  39.8951699  92.1444025
  79.1111510  38.6479828  92.6351134  89.8195598  33.6756402  83.0921927
  90.6541202  33.2437601  82.9099402  89.6579941  33.5038416  84.0198822
  89.4741491  30.1788516  84.4578267  89.4190294  30.0132787  83.5166711
  88.8487546  30.8864548  84.6140457  74.2634006  25.4156580  98.2839689
  74.9092869  24.9055534  98.7726914  74.0551157  26.1525262  98.8583114
  82.7837616  19.6796625  84.0363585  82.7716286  20.6238464  84.1931856
  83.6761038  19.4966770  83.7423046  80.9573578  39.6034528  95.4621263
  81.8600825  39.6358139  95.7787758  80.7310948  38.6734979  95.4767599
  82.7127180  38.3565515  92.1231342  81.7622811  38.3567377  92.0095714
  83.0159666  37.6098250  91.6067376  98.4479874  44.1926053  93.1877104
  99.0858283  44.0732801  92.4840444  98.3300716  45.1406897  93.2465056
  95.2569580  44.1453481  93.1238629  94.9188091  44.0294546  92.2359164
  96.1259348  43.7444647  93.1039635  91.1156395  45.9988958  89.1135520
  90.5521261  45.9078895  88.3451808  91.0008791  45.1788862  89.5938012
  88.6620827  47.4940149  91.9519740  89.4542119  47.1530974  91.5366040
  88.9017478  47.6035125  92.8721894  96.6955954  49.6659926  84.4249985
  96.0443934  50.2514006  84.0383999  97.4900317  50.1966120  84.4845022
  90.6211581  46.7549063  84.8237119  91.3942457  46.2078050  84.6849995
  90.9736980  47.6193312  85.0351581  92.4596624  48.0825445  98.0304018
  92.1686490  48.9871076  97.9150685  93.0953608  48.1241973  98.7448088
  93.3852831  45.4602294  94.6205378  93.9816403  45.2358316  93.9062341
  93.4427802  44.7187039  95.2230826  92.9577859  42.9141729  82.4555569
  93.2103380  42.3923250  81.6939032  92.0202418  42.7507874  82.5582253
  98.0021142  41.9177507  90.2630312  98.7884231  41.4996930  89.9120729
  98.2659846  42.8223599  90.4311961  98.1731219  47.3550358  84.9618969
  97.5377052  47.4284984  85.6739874  97.8428626  47.9443956  84.2838048
  92.6774148  44.8169835  84.6579944  92.5610406  44.1414738  85.3261028
  92.7876408  44.3302209  83.8412097  95.0205689  44.2779982  88.3626633
  94.6563896  43.7510603  89.0739555  95.8772805  43.8878451  88.1893119
  94.6611176  39.3069882  83.3587982  94.8285578  40.1750118  83.7258453
  94.4708345  39.4697163  82.4349271  97.4186509  47.7686860  95.0253812
  97.1187232  48.6711899  94.9169619  97.0737569  47.5019044  95.8774965
  90.8698990  44.2200657  91.0590517  89.9449487  44.0876871  91.2668208
  91.1183404  44.9994877  91.5560459  94.6400397  41.7627539  84.3434649
  94.5200022  42.2084590  85.1820129  93.9452985  42.1112857  83.7848187
  88.2307802  43.8633931  91.8934306  88.3600183  44.1168410  92.8073717
  87.5505253  44.4561639  91.5738961  92.4007289  54.5331181  87.9924780
  92.3231319  55.4839006  88.0713260  91.7968932  54.1877053  88.6499706
 100.3385463  42.2349012  85.1714983 101.2503319  42.4676399  84.9962680
  99.8295110  42.8186056  84.6090061  98.9455045  47.2174831  92.5628564
  98.3163908  47.3820545  91.8604632  98.5580707  47.6316440  93.3339528
 102.8244277  48.1529269  89.9172928 102.1395315  48.5328170  89.3669961
 102.9088126  48.7624595  90.6504876  94.4983007  46.9549239  89.8278649
  94.9621353  47.2336942  89.0383272  94.2339805  46.0532683  89.6451740
  91.3907088  46.5020720  92.7658412  91.9608445  46.9307989  92.1275897
  91.9815200  46.2203305  93.4642598  93.4351893  43.0772391  86.6368214
  94.1375936  43.5293435  87.1042141  93.1032522  42.4356210  87.2648107
  87.1777227  41.3355944  91.9385348  86.3876281  41.5913472  91.4625459
  87.6688474  42.1504282  92.0437388  89.1291972  41.7000523  88.8968825
  88.3323136  41.8119217  89.4152320  88.9017565  42.0387175  88.0309715
  94.9597640  48.2245226  96.8451339  95.0242073  48.6865634  97.6809511
  94.2508564  47.5942591  96.9733649  85.4614930  41.5886434  94.3700339
  85.7122968  42.4733444  94.6357915  85.9974478  41.4091036  93.5975431
  94.6745658  49.8913334  86.7130320  94.5391333  50.7364870  87.1415167
  95.2155470  50.0932611  85.9496253  88.1275055  47.4088772  87.2858245
  88.6399576  48.2032022  87.4363809  88.7797768  46.7115062  87.2191846
  89.9369940  50.5254528  89.3680998  90.1136568  51.4472493  89.1801982
  90.7326773  50.2112947  89.7975378  89.2222296  42.5719160  99.2443161
  89.1075811  41.6704417  99.5450260  88.3666814  42.8182857  98.8927978
  91.0601255  52.0432702  95.3691340  91.6108680  51.9149765  94.5968334
  90.2212731  52.3427591  95.0186233  86.0923972  45.7377426  88.0617815
  86.9299194  46.1474435  87.8451523  86.2702240  44.7976868  88.0318009
  97.9888404  43.4052507  83.7501648  97.4735027  44.1757111  83.9890036
  97.7165712  42.7317643  84.3734710  95.5735515  38.2502208  88.8086887
  94.7177111  37.8609058  88.6292525  95.9862467  38.3294168  87.9486672
 102.9622678  46.1584861  85.6854822 102.1852121  45.8196021  85.2409984
 103.6414159  46.1637485  85.0109787  97.7774707  41.2779599  85.5761429
  97.4724843  41.5925748  86.4271572  98.7305149  41.3561019  85.6188762
  96.2221139  47.4369822  87.2254383  95.6942501  46.7022582  86.9127621
  95.7208642  48.2144499  86.9794352  90.9539867  38.0989488  89.5860995
  91.5283619  37.8764670  88.8534188  91.5410849  38.1678183  90.3389596
 100.0119444  43.9863215  90.3925371 100.5251326  44.6193207  90.8947081
 100.6620668  43.3864411  90.0268731  91.2809454  40.1293950  83.6056880
  90.4446766  40.4668636  83.9266155  91.1414223  39.9942929  82.6684017
  93.2562534  34.9730737  88.3136064  92.6026947  34.6579755  87.6892679
  93.2143008  34.3506478  89.0395887  94.3673739  45.2550032  80.2289356
  93.4600801  45.0239286  80.4280505  94.8644771  44.4587652  80.4163338
  97.2741818  53.9647540  83.1486042  96.6003517  54.2679236  83.7571000
  97.6607640  54.7676620  82.7991500  96.4900275  41.4612671  92.6383712
  95.5722836  41.6827618  92.4805400  96.9060418  41.5358981  91.7795419
  97.2735322  42.8604087  87.7686392  98.0207141  43.3725484  87.4593514
  97.5426912  42.5388139  88.6290786  95.5461973  45.3562627  84.7513346
  94.6373192  45.0721660  84.8485816  95.5757056  45.7761706  83.8916653
 100.7781240  48.9669217  88.5204514 100.3243567  48.1260127  88.5769704
 100.1475207  49.6030615  88.8579294  99.7214160  39.8961203  89.7505181
  98.9836916  39.3838589  90.0815424  99.9740933  39.4561584  88.9388458
  99.2214179  50.8045714  89.4554332  99.5137154  51.3650771  88.7366698
  99.7312800  51.0974275  90.2107491  86.1150143  43.0768141  88.7328549
  85.9174543  42.4837502  88.0079615  85.5596807  42.7720352  89.4504487
  94.0946867  42.9691248  90.8523142  94.1495476  42.0165084  90.7765618
  93.2838069  43.1250687  91.3364440  95.2438060  46.8971371  82.0901425
  94.8057490  46.1807230  81.6307062  95.9848501  47.1247486  81.5286516
  92.0339227  41.5868308  88.6113521  91.2207092  41.8862478  89.0178713
  92.5298221  41.1923996  89.3288003  94.1847804  51.5826065  90.5447785
  94.1423983  51.8086911  89.6156317  95.1010503  51.3489439  90.6933586
 103.3611175  45.1728568  88.1477744 103.2229074  45.3630164  87.2198933
 103.0047394  45.9347951  88.6045795  91.5253301  39.1586663  94.2274756
  92.1652681  39.0175422  93.5297719  90.6930832  38.8721177  93.8513358
  92.3013605  48.4589094  90.3409748  93.0954204  47.9639414  90.1392323
  91.5905298  47.9306957  89.9777454  97.1208450  50.8407189  94.6922116
  97.1745472  51.4098125  95.4599832  96.2523231  51.0109074  94.3276153
  88.6096369  42.6032175  86.4169501  87.6793957  42.5416631  86.6339463
  88.7053841  42.0808128  85.6206142  88.5281918  39.1286988  89.0047742
  88.7888735  40.0432321  88.8956903  89.3499090  38.6611431  89.1544355
  90.0006843  40.5424745  96.1746567  90.6729897  40.3342107  95.5259216
  89.1736630  40.3446831  95.7351799  94.8784881  49.0318116  94.0207585
  94.7395967  48.6636900  94.8933523  94.0899478  49.5465755  93.8491543
  95.4733033  54.1327212  85.3633122  95.6484789  53.6615255  86.1778744
  94.7865821  54.7592978  85.5914382  96.4290096  48.4099718  91.4096423
  96.0939929  48.3700488  92.3054073  95.9294042  47.7444434  90.9366833
  90.4034340  43.8167348  96.9349004  90.2654138  43.0847587  97.5360543
  91.3139264  43.7276248  96.6533192  99.3649288  45.7555753  81.6833483
  98.7478459  45.0302581  81.5866535  98.8965777  46.5165113  81.3400557
  93.0316641  43.5287308  96.4232684  93.7416260  42.8880500  96.3819302
  92.9885949  43.7800203  97.3458865  90.0394119  57.2816575  92.1372982
  90.2790717  57.9135099  92.8152000  89.1963315  56.9304615  92.4238341
  91.1547834  39.9741177  80.8054787  90.2777300  39.8529978  80.4417034
  91.6305587  39.1827255  80.5533676  82.6749974  44.7618337  90.8996294
  83.3621014  44.4480067  90.3117309  82.5198103  45.6659701  90.6263545
  87.4784696  39.6508533  95.3281318  87.3942885  39.0434203  94.5931728
  86.6567403  40.1417552  95.3290814  94.5521980  53.0895697  94.5414486
  94.4792152  53.8950669  95.0533790  94.1099373  53.2887663  93.7162507
  94.3411760  52.3267467  88.0517307  93.5579282  52.8689147  88.1455532
  95.0404505  52.8441447  88.4511549  98.7338191  46.8933784  88.2689936
  97.7994470  47.0135246  88.0994640  98.9114859  45.9906251  88.0049946
  94.2343379  40.2779480  90.4223197  93.8641166  39.7250520  91.1104103
  94.7302471  39.6737613  89.8698197  92.0632577  50.7376975  97.5178215
  92.7642037  51.3713458  97.6707610  91.5927692  51.0791706  96.7573855
 100.1886973  49.0794925  85.8026122 100.4646817  48.9651519  86.7119996
  99.3191472  48.6812409  85.7638295  96.8241037  53.3281275  89.4458936
  97.0063432  52.5102931  89.9086688  97.6474023  53.5448968  89.0083826
  97.1583203  52.2549461  86.7073984  97.6870969  51.7441915  86.0944147
  97.4211422  51.9391991  87.5719517  87.6600296  50.2713330  94.4509318
  88.2453732  49.5257018  94.5837222  87.4625134  50.5817287  95.3345982
  90.5138951  53.3064577  89.4671760  89.8449326  53.7910705  88.9835800
  90.3751820  53.5533798  90.3815139  82.2517950  42.8418930  93.1713761
  82.2902050  42.3082521  93.9650879  81.7458243  42.3154136  92.5524738
  89.6308713  37.6883471  96.6676303  89.6950039  38.5498301  96.2553701
  89.5675833  37.0757472  95.9348662  85.8826528  41.5683032  86.2467693
  86.1779969  40.6593711  86.1934746  84.9814564  41.5470772  85.9248695
  97.7912607  53.2890296  93.0518101  97.6663746  52.4880036  92.5429046
  98.4491698  53.7836490  92.5632071  89.4120775  39.6439029  92.2295241
  88.6907361  40.2574996  92.0902714  90.2014031  40.1796794  92.1511887
  99.8547515  51.0899316  94.6797651  98.9077851  50.9704668  94.6075978
 100.2030288  50.2021814  94.7623912  87.6114369  39.2497130  86.3707018
  87.2827076  38.3694509  86.1882124  87.9653740  39.1944799  87.2583407
  96.8593948  50.8852033  90.8802003  96.7118911  49.9568740  91.0609573
  97.6847442  50.9072123  90.3959078  90.7256193  39.5370100  86.7382495
  91.0652265  40.0656021  86.0161104  91.1728313  39.8750506  87.5141062
 100.4628070  51.7080591  91.9666876 101.3874618  51.5023453  91.8291327
 100.2943373  51.4596992  92.8756217  92.7124340  38.0344721  84.9375788
  93.4332702  38.4125974  84.4339505  92.0889644  38.7533598  85.0410766
  96.8555463  38.7389870  85.8734120  97.0719077  39.6214508  85.5722949
  96.3749530  38.3476084  85.1439762  91.5954684  41.6975583  92.4504865
  91.4499265  42.0115887  93.3429147  91.1179888  42.3160484  91.8975764
  93.4551067  38.6878131  92.4985755  93.4412636  37.7919225  92.1618053
  94.1723495  38.6948795  93.1324041 100.2523386  52.2266259  87.3228967
 100.4260264  51.6612681  86.5702820 100.7452278  53.0267154  87.1408457
  86.0700346  44.2380928  95.3892526  85.5253814  45.0140736  95.5212801
  86.9479696  44.5851732  95.2311648  92.8587963  37.5692512  87.7673325
  92.9803874  36.6409158  87.9664212  92.5690005  37.5831198  86.8551640
 101.2398559  51.5433023  84.4225866 101.9349463  52.1639716  84.6413180
 101.5821709  50.6928374  84.6978244  86.8566368  43.3650824  98.2822683
  86.1148104  43.5133459  98.8687314  86.5359112  43.6259090  97.4189432
 103.1389982  48.9932729  85.9513196 103.6641306  49.3320001  85.2262516
 103.0512334  48.0579744  85.7676331  94.8230643  55.0604712  90.3108450
  94.3835633  54.5681091  91.0041306  95.5738760  54.5177680  90.0700525
  87.3022982  51.2516253  90.3133078  88.1281002  50.9520025  89.9331721
  86.9517034  50.4823875  90.7622866  92.2704515  50.6042721  92.3830751
  91.6484524  49.9413426  92.0832979  92.9409382  50.6303853  91.7004399
  85.5031587  49.1702579  91.2722011  84.6663495  48.7424754  91.0906013
  85.4755232  49.3635023  92.2092802  91.8318022  49.1546644  85.8589212
  91.9806142  49.8382109  85.2055885  92.6384465  49.1351734  86.3738668
  89.5870655  45.1811822  86.8650281  89.3416697  44.2774152  87.0630491
  89.7566569  45.1828972  85.9229759  88.8566302  40.9140180  84.3636442
  88.1635547  40.9884535  83.7076478  88.6118054  40.1500523  84.8857959
  95.3313427  51.6494775  83.3300959  94.7587394  52.2684962  82.8771431
  95.9046221  52.1994137  83.8640881  98.5510687  51.9331925  84.4609542
  99.4841360  51.8677487  84.6642417  98.4633900  52.7688192  84.0024074
 101.1798704  51.2497795  81.4213489 101.1012335  50.9157659  82.3149247
 102.0008371  51.7419563  81.4204961  95.7160226  42.9855588  80.6717012
  96.6619330  42.8561796  80.7405430  95.3374471  42.2470249  81.1486440
  93.9003143  40.9105564  80.6071897  92.9934598  40.6138677  80.6834611
  94.1779124  40.6135382  79.7406183  84.8181083  42.2311927  91.0570943
  84.4983868  41.3777236  90.7645317  84.2714511  42.4460506  91.8128911
  88.5960991  44.9474368  94.7740450  88.8147001  45.8791476  94.7928484
  89.0086765  44.5882343  95.5595254  95.5165209  35.4542454  86.7616138
  94.7065937  35.1089539  87.1371384  96.2049626  35.1449997  87.3503750
  92.6701928  37.7692499  80.7483876  93.5321092  38.0947398  81.0079694
  92.8552272  36.9823995  80.2356942  84.6869343  45.8514839  93.0264065
  83.9932815  45.4368792  92.5134019  85.4342334  45.8935375  92.4297484
  86.6006086  45.7833093  90.9030080  86.5776774  45.8820780  89.9511963
  86.9106722  46.6298243  91.2247246  89.2593464  47.8409248  95.0176694
  90.2136717  47.8093190  94.9506626  89.0605987  47.3799871  95.8326920
  89.8492846  46.4110364  97.5847492  90.6685735  46.9054442  97.6082329
  90.1229654  45.4942332  97.5565059  99.6059442  38.8021116  86.9475447
  98.7185297  39.0870767  86.7295642 100.0213431  38.6414879  86.1002724
  87.6143693  53.3828867  92.0346892  87.4798160  52.6229268  91.4684890
  87.1975755  54.1069767  91.5675681  98.7502656  48.5665791  81.0423467
  99.4538506  48.7715793  81.6581123  98.0265304  49.1342553  81.3072551
  99.5800466  44.3175652  87.1625738  99.5235667  44.7744203  86.3233370
 100.1328808  43.5566337  86.9848580  90.7712818  54.2798184  92.2465335
  90.6545203  55.2243617  92.1444025  89.9505265  53.9771746  92.6351134
 100.6589353  49.0048320  83.0921927 101.4934957  48.5729518  82.9099402
 100.4973696  48.8330334  84.0198822 100.3135245  45.5080433  84.4578267
 100.2584049  45.3424705  83.5166711  99.6881300  46.2156466  84.6140457
  85.1027760  40.7448498  98.2839689  85.7486624  40.2347452  98.7726914
  84.8944911  41.4817179  98.8583114  93.6231371  35.0088542  84.0363585
  93.6110040  35.9530382  84.1931856  94.5154792  34.8258688  83.7423046
  91.7967333  54.9326446  95.4621263  92.6994579  54.9650056  95.7787758
  91.5704703  54.0026897  95.4767599  93.5520935  53.6857433  92.1231342
  92.6016566  53.6859294  92.0095714  93.8553421  52.9390167  91.6067376
 101.9550150  61.3280876  89.1135520 101.3915015  61.2370812  88.3451808
 101.8402545  60.5080780  89.5938012 101.4605336  62.0840980  84.8237119
 102.2336212  61.5369967  84.6849995 101.8130735  62.9485230  85.0351581
 103.5167902  60.1461752  84.6579944 103.4004161  59.4706656  85.3261028
 103.6270162  59.6594126  83.8412097  98.0170982  56.6647862  91.9385348
  97.2270036  56.9205390  91.4625459  98.5082229  57.4796199  92.0437388
  99.9685727  57.0292441  88.8968825  99.1716890  57.1411135  89.4152320
  99.7411319  57.3679093  88.0309715  98.9668810  62.7380690  87.2858245
  99.4793330  63.5323940  87.4363809  99.6191522  62.0406980  87.2191846
  96.9317726  61.0669344  88.0617815  97.7692948  61.4766352  87.8451523
  97.1095994  60.1268786  88.0318009 101.7933621  53.4281406  89.5860995
 102.3677373  53.2056588  88.8534188 102.3804604  53.4970101  90.3389596
 102.1203208  55.4585867  83.6056880 101.2840521  55.7960554  83.9266155
 101.9807978  55.3234847  82.6684017  96.9543898  58.4060059  88.7328549
  96.7568297  57.8129420  88.0079615  96.3990562  58.1012269  89.4504487
 102.8732981  56.9160225  88.6113521 102.0600847  57.2154396  89.0178713
 103.3691975  56.5215914  89.3288003  99.4490123  57.9324093  86.4169501
  98.5187711  57.8708549  86.6339463  99.5447595  57.4100046  85.6206142
  99.3675672  54.4578906  89.0047742  99.6282490  55.3724239  88.8956903
 100.1892845  53.9903348  89.1544355 101.9941588  55.3033095  80.8054787
 101.1171055  55.1821895  80.4417034 102.4699342  54.5119173  80.5533676
  93.5143729  60.0910254  90.8996294  94.2014768  59.7771984  90.3117309
  93.3591857  60.9951619  90.6263545  93.0911705  58.1710848  93.1713761
  93.1295804  57.6374438  93.9650879  92.5851998  57.6446053  92.5524738
  96.7220282  56.8974950  86.2467693  97.0173723  55.9885628  86.1934746
  95.8208318  56.8762689  85.9248695 100.2514529  54.9730946  92.2295241
  99.5301115  55.5866914  92.0902714 101.0407785  55.5088711  92.1511887
  98.4508124  54.5789048  86.3707018  98.1220830  53.6986426  86.1882124
  98.8047495  54.5236716  87.2583407 101.5649947  54.8662017  86.7382495
 101.9046020  55.3947939  86.0161104 102.0122068  55.2042423  87.5141062
 102.6711776  64.4838562  85.8589212 102.8199897  65.1674026  85.2055885
 103.4778220  64.4643652  86.3738668 100.4264409  60.5103740  86.8650281
 100.1810451  59.6066070  87.0630491 100.5960324  60.5120890  85.9229759
  99.6960057  56.2432097  84.3636442  99.0029302  56.3176452  83.7076478
  99.4511809  55.4792441  84.8857959  95.6574838  57.5603845  91.0570943
  95.3377622  56.7069153  90.7645317  95.1108266  57.7752423  91.8128911
  68.3606611   3.6294862  78.8618288  68.6003209   4.2613386  79.5397307
  67.5175807   3.2782902  79.1483648  77.8227074   9.1710354  78.6765047
  78.6148366   8.8301179  78.2611346  78.0623724   9.2805329  79.5967200
  85.8562201  11.3430130  71.1495291  85.2050181  11.9284211  70.7629305
  86.6506564  11.8736325  71.2090329  79.7817828   8.4319268  71.5482426
  80.5548704   7.8848255  71.4095302  80.1343227   9.2963517  71.7596887
  81.6202871   9.7595650  84.7549325  81.3292737  10.6641281  84.6395991
  82.2559855   9.8012178  85.4693395  81.5613536  16.2101386  74.7170086
  81.4837565  17.1609211  74.7958567  80.9575179  15.8647258  75.3745013
  80.5513335   8.1790925  79.4903719  81.1214692   8.6078194  78.8521204
  81.1421447   7.8973510  80.1887905  84.1203887   9.9015431  83.5696646
  84.1848319  10.3635838  84.4054818  83.4114811   9.2712796  83.6978956
  83.8351904  11.5683539  73.4375626  83.6997579  12.4135074  73.8660474
  84.3761717  11.7702816  72.6741560  77.2881302   9.0858977  74.0103551
  77.8005822   9.8802227  74.1609116  77.9404015   8.3885267  73.9437153
  79.0976187  12.2024733  76.0926304  79.2742815  13.1242698  75.9047288
  79.8933020  11.8883152  76.5220684  80.2207502  13.7202907  82.0936647
  80.7714927  13.5919970  81.3213641  79.3818978  14.0197796  81.7431540
  75.2530219   7.4147631  74.7863122  76.0905441   7.8244639  74.5696830
  75.4308486   6.4747073  74.7563316  86.4348065  15.6417745  69.8731349
  85.7609764  15.9449441  70.4816307  86.8213887  16.4446825  69.5236806
  88.3820426  12.4815918  76.1799639  88.6743400  13.0420976  75.4612004
  88.8919047  12.7744479  76.9352798  83.3454051  13.2596270  77.2693092
  83.3030230  13.4857116  76.3401624  84.2616750  13.0259644  77.4178893
  81.4619852  10.1359299  77.0655055  82.2560451   9.6409619  76.8637630
  80.7511544   9.6077162  76.7022760  86.2814697  12.5177394  81.4167422
  86.3351719  13.0868330  82.1845138  85.4129478  12.6879279  81.0521459
  84.0391128  10.7088321  80.7452892  83.9002214  10.3407105  81.6178830
  83.2505724  11.2235960  80.5736850  84.6339280  15.8097417  72.0878428
  84.8091036  15.3385460  72.9024051  83.9472068  16.4363183  72.3159689
  85.5896343  10.0869923  78.1341730  85.2546176  10.0470693  79.0299379
  85.0900289   9.4214639  77.6612140  79.2000365  18.9586780  78.8618288
  79.4396964  19.5905304  79.5397307  78.3569562  18.6074820  79.1483648
  71.8356221   6.4388542  77.6241601  72.5227261   6.1250272  77.0362616
  71.6804350   7.3429906  77.3508852  83.7128227  14.7665902  81.2659792
  83.6398399  15.5720874  81.7779097  83.2705620  14.9657868  80.4407814
  83.5018007  14.0037672  74.7762614  82.7185529  14.5459352  74.8700839
  84.2010752  14.5211652  75.1756855  86.1726911  14.6652736  83.4217951
  86.8854883  15.3000201  83.3493853  85.6816939  14.7616602  82.6057953
  81.2238824  12.4147180  84.2423522  81.9248284  13.0483663  84.3952916
  80.7533939  12.7561911  83.4819161  89.3493220  10.7565129  72.5271429
  89.6253064  10.6421724  73.4365303  88.4797719  10.3582614  72.4883602
  85.9847284  15.0051480  76.1704243  86.1669679  14.1873136  76.6331995
  86.8080270  15.2219173  75.7329133  86.3189450  13.9319665  73.4319291
  86.8477216  13.4212120  72.8189453  86.5817669  13.6162196  74.2964824
  76.8206542  11.9483535  81.1754625  77.4059979  11.2027223  81.3082529
  76.6231381  12.2587491  82.0591289  79.6745197  14.9834782  76.1917067
  79.0055573  15.4680910  75.7081107  79.5358067  15.2304003  77.1060446
  83.8150466  17.0178526  82.7899725  84.3668774  17.1810147  83.5548811
  84.1556660  17.6082963  82.1179750  86.9518853  14.9660501  79.7763408
  86.8269993  14.1650241  79.2674353  87.6097944  15.4606695  79.2877377
  89.0153762  12.7669521  81.4042958  88.0684097  12.6474872  81.3321284
  89.3636535  11.8792019  81.4869219  86.0200195  12.5622237  77.6047310
  85.8725157  11.6338945  77.7854880  86.8453689  12.5842328  77.1204385
  89.6234317  13.3850796  78.6912183  90.5480864  13.1793658  78.5536634
  89.4549620  13.1367197  79.6001524  89.4129633  13.9036464  74.0474274
  89.5866511  13.3382886  73.2948127  89.9058524  14.7037359  73.8653764
  75.2306593   5.9151133  82.1137833  74.6860061   6.6910941  82.2458107
  76.1085943   6.2621937  81.9556954  90.4004806  13.2203228  71.1471172
  91.0955710  13.8409921  71.3658487  90.7427956  12.3698579  71.4223550
  83.9616277  14.5837007  84.8048380  84.2703404  14.3386154  85.6771079
  84.7591759  14.7883646  84.3167250  83.9836889  16.7374917  77.0353756
  83.5441880  16.2451296  77.7286613  84.7345006  16.1947885  76.7945832
  76.4629228  12.9286458  77.0378384  77.2887248  12.6290230  76.6577028
  76.1123280  12.1594080  77.4868173  81.4310762  12.2812926  79.1076058
  80.8090771  11.6183631  78.8078286  82.1015629  12.3074058  78.4249706
  74.6637833  10.8472784  77.9967318  73.8269742  10.4194959  77.8151319
  74.6361479  11.0405228  78.9338109  80.9924269  10.8316849  72.5834519
  81.1412389  11.5152314  71.9301191  81.7990712  10.8121939  73.0983974
  84.4919674  13.3264980  70.0546266  83.9193641  13.9455167  69.6016738
  85.0652468  13.8764341  70.5886188  87.7116934  13.6102130  71.1854848
  88.6447607  13.5447692  71.3887724  87.6240147  14.4458397  70.7269381
  90.3404950  12.9268000  68.1458796  90.2618582  12.5927864  69.0394554
  91.1614617  13.4189768  68.1450268  73.8475590   7.5285044  79.7509372
  73.1539062   7.1138997  79.2379326  74.5948581   7.5705580  79.1542791
  75.7612333   7.4603298  77.6275387  75.7383021   7.5590985  76.6757270
  76.0712969   8.3068448  77.9492553  78.4199710   9.5179453  81.7422001
  79.3742964   9.4863395  81.6751932  78.2212234   9.0570076  82.5572227
  79.0099093   8.0880569  84.3092799  79.8291982   8.5824647  84.3327636
  79.2835900   7.1712537  84.2810366  76.7749939  15.0599072  78.7592199
  76.6404407  14.2999473  78.1930197  76.3582002  15.7839972  78.2920988
  87.9108902  10.2435996  67.7668774  88.6144752  10.4485998  68.3826430
  87.1871551  10.8112758  68.0317858  79.9319065  15.9568389  78.9710641
  79.8151449  16.9013822  78.8689332  79.1111511  15.6541951  79.3596441
  80.9573579  16.6096651  82.1866570  81.8600826  16.6420261  82.5033065
  80.7310949  15.6797102  82.2012906  82.7127181  15.3627638  78.8476648
  81.7622812  15.3629499  78.7341021  83.0159667  14.6160372  78.3312683
  98.4479875  21.1988176  79.9122411  99.0858285  21.0794923  79.2085751
  98.3300718  22.1469020  79.9710363  95.2569581  21.1515604  79.8483936
  94.9188093  21.0356669  78.9604470  96.1259349  20.7506769  79.8284942
  91.1156397  23.0051080  75.8380827  90.5521262  22.9141017  75.0697114
  91.0008792  22.1850985  76.3183319  88.6620829  24.5002272  78.6765047
  89.4542121  24.1593097  78.2611346  88.9017479  24.6097247  79.5967200
  96.6955955  26.6722048  71.1495291  96.0443935  27.2576129  70.7629305
  97.4900318  27.2028243  71.2090329  90.6211583  23.7611185  71.5482426
  91.3942459  23.2140172  71.4095302  90.9736981  24.6255435  71.7596887
  92.4596625  25.0887568  84.7549325  92.1686491  25.9933198  84.6395991
  93.0953610  25.1304095  85.4693395  93.3852832  22.4664416  81.3450685
  93.9816404  22.2420438  80.6307648  93.4427804  21.7249162  81.9476133
  92.9577860  19.9203851  69.1800876  93.2103381  19.3985373  68.4184339
  92.0202420  19.7569997  69.2827559  98.0021143  18.9239630  76.9875619
  98.7884232  18.5059053  76.6366036  98.2659848  19.8285722  77.1557267
  98.1731221  24.3612480  71.6864276  97.5377054  24.4347107  72.3985180
  97.8428627  24.9506079  71.0083355  92.6774149  21.8231957  71.3825251
  92.5610407  21.1476861  72.0506335  92.7876409  21.3364331  70.5657404
  95.0205690  21.2842104  75.0871940  94.6563897  20.7572725  75.7984861
  95.8772806  20.8940574  74.9138425  94.6611177  16.3132004  70.0833288
  94.8285579  17.1812241  70.4503759  94.4708346  16.4759286  69.1594578
  97.4186510  24.7748983  81.7499119  97.1187233  25.6774022  81.6414926
  97.0737570  24.5081166  82.6020272  90.8698992  21.2262780  77.7835823
  89.9449488  21.0938994  77.9913515  91.1183405  22.0056999  78.2805766
  94.6400398  18.7689662  71.0679955  94.5200023  19.2146712  71.9065436
  93.9452986  19.1174979  70.5093493  88.2307803  20.8696053  78.6179612
  88.3600184  21.1230532  79.5319024  87.5505254  21.4623761  78.2984267
  92.4007290  31.5393303  74.7170086  92.3231320  32.4901129  74.7958567
  91.7968934  31.1939176  75.3745013 100.3385464  19.2411135  71.8960289
 101.2503320  19.4738522  71.7207987  99.8295111  19.8248179  71.3335368
  98.9455046  24.2236953  79.2873871  98.3163909  24.3882667  78.5849939
  98.5580709  24.6378563  80.0584835 102.8244278  25.1591391  76.6418234
 102.1395316  25.5390293  76.0915268 102.9088128  25.7686718  77.3750182
  94.4983008  23.9611361  76.5523956  94.9621354  24.2399064  75.7628578
  94.2339806  23.0594806  76.3697047  91.3907089  23.5082843  79.4903719
  91.9608446  23.9370111  78.8521204  91.9815201  23.2265428  80.1887905
  93.4351894  20.0834514  73.3613521  94.1375938  20.5355557  73.8287447
  93.1032523  19.4418333  73.9893414  87.1777228  18.3418066  78.6630655
  86.3876282  18.5975595  78.1870765  87.6688476  19.1566404  78.7682695
  89.1291974  18.7062646  75.6214131  88.3323137  18.8181340  76.1397627
  88.9017566  19.0449298  74.7555022  94.9597641  25.2307349  83.5696646
  95.0242074  25.6927756  84.4054818  94.2508565  24.6004714  83.6978956
  85.4614931  18.5948557  81.0945645  85.7122970  19.4795567  81.3603221
  85.9974480  18.4153158  80.3220737  94.6745659  26.8975456  73.4375626
  94.5391334  27.7426992  73.8660474  95.2155471  27.0994734  72.6741560
  88.1275056  24.4150894  74.0103551  88.6399577  25.2094145  74.1609116
  88.7797769  23.7177185  73.9437153  89.9369941  27.5316651  76.0926304
  90.1136569  28.4534615  75.9047288  90.7326775  27.2175070  76.5220684
  89.2222298  19.5781283  85.9688468  89.1075813  18.6766540  86.2695567
  88.3666815  19.8244979  85.6173284  91.0601257  29.0494824  82.0936647
  91.6108682  28.9211888  81.3213641  90.2212732  29.3489714  81.7431540
  86.0923973  22.7439549  74.7863122  86.9299195  23.1536557  74.5696830
  86.2702241  21.8038991  74.7563316  97.9888405  20.4114629  70.4746955
  97.4735029  21.1819234  70.7135342  97.7165714  19.7379766  71.0980016
  95.5735516  15.2564330  75.5332193  94.7177113  14.8671181  75.3537832
  95.9862468  15.3356291  74.6731979 102.9622679  23.1646984  72.4100128
 102.1852122  22.8258144  71.9655290 103.6414160  23.1699607  71.7355093
  97.7774708  18.2841721  72.3006736  97.4724844  18.5987871  73.1516879
  98.7305151  18.3623141  72.3434069  96.2221140  24.4431945  73.9499690
  95.6942502  23.7084704  73.6372927  95.7208643  25.2206621  73.7039658
  90.9539868  15.1051611  76.3106301  91.5283620  14.8826793  75.5779494
  91.5410850  15.1740306  77.0634903 100.0119445  20.9925338  77.1170678
 100.5251327  21.6255330  77.6192388 100.6620669  20.3926533  76.7514038
  91.2809455  17.1356072  70.3302187  90.4446767  17.4730759  70.6511461
  91.1414225  17.0005052  69.3929324  94.3673740  22.2612155  66.9534663
  93.4600802  22.0301409  67.1525812  94.8644772  21.4649774  67.1408645
  97.2741819  30.9709662  69.8731349  96.6003518  31.2741359  70.4816307
  97.6607641  31.7738743  69.5236806  96.4900276  18.4674794  79.3629019
  95.5722837  18.6889741  79.2050707  96.9060420  18.5421104  78.5040726
  97.2735324  19.8666209  74.4931699  98.0207143  20.3787606  74.1838821
  97.5426913  19.5450262  75.3536092  95.5461974  22.3624750  71.4758653
  94.6373193  22.0783783  71.5731123  95.5757058  22.7823828  70.6161960
 100.7781241  25.9731339  75.2449821 100.3243568  25.1322249  75.3015011
 100.1475208  26.6092738  75.5824601  99.7214161  16.9023325  76.4750488
  98.9836918  16.3900712  76.8060731  99.9740934  16.4623707  75.6633765
  99.2214181  27.8107836  76.1799639  99.5137155  28.3712893  75.4612004
  99.7312801  28.1036397  76.9352798  86.1150144  20.0830264  75.4573855
  85.9174544  19.4899625  74.7324922  85.5596808  19.7782474  76.1749794
  94.0946868  19.9753371  77.5768448  94.1495478  19.0227207  77.5010925
  93.2838070  20.1312810  78.0609747  95.2438062  23.9033494  68.8146732
  94.8057492  23.1869353  68.3552369  95.9848503  24.1309608  68.2531823
  92.0339228  18.5930430  75.3358827  91.2207093  18.8924601  75.7424019
  92.5298222  18.1986119  76.0533310  94.1847806  28.5888187  77.2693092
  94.1423985  28.8149034  76.3401624  95.1010505  28.3551562  77.4178893
 103.3611176  22.1790691  74.8723050 103.2229075  22.3692287  73.9444239
 103.0047395  22.9410073  75.3291101  91.5253303  16.1648786  80.9520062
  92.1652682  16.0237545  80.2543026  90.6930833  15.8783299  80.5758664
  92.3013607  25.4651216  77.0655055  93.0954205  24.9701536  76.8637630
  91.5905299  24.9369079  76.7022760  97.1208451  27.8469312  81.4167422
  97.1745473  28.4160248  82.1845138  96.2523232  28.0171197  81.0521459
  88.6096370  19.6094298  73.1414807  87.6793958  19.5478753  73.3584770
  88.7053842  19.0870251  72.3451449  88.5281919  16.1349111  75.7293049
  88.7888736  17.0494444  75.6202209  89.3499091  15.6673553  75.8789662
  90.0006844  17.5486868  82.8991874  90.6729898  17.3404230  82.2504522
  89.1736631  17.3508954  82.4597106  94.8784883  26.0380238  80.7452892
  94.7395968  25.6699023  81.6178830  94.0899479  26.5527878  80.5736850
  95.4733034  31.1389335  72.0878428  95.6484790  30.6677378  72.9024051
  94.7865823  31.7655101  72.3159689  96.4290098  25.4161841  78.1341730
  96.0939930  25.3762611  79.0299379  95.9294043  24.7506557  77.6612140
  90.4034342  20.8229471  83.6594311  90.2654140  20.0909710  84.2605850
  91.3139265  20.7338371  83.3778498  99.3649289  22.7617875  68.4078789
  98.7478460  22.0364703  68.3111842  98.8965778  23.5227236  68.0645863
  93.0316642  20.5349430  83.1477990  93.7416261  19.8942622  83.1064609
  92.9885950  20.7862325  84.0704171  90.0394120  34.2878697  78.8618288
  90.2790718  34.9197222  79.5397307  89.1963316  33.9366737  79.1483648
  91.1547835  16.9803300  67.5300093  90.2777302  16.8592100  67.1662340
  91.6305588  16.1889378  67.2778982  82.6749975  21.7680459  77.6241601
  83.3621015  21.4542189  77.0362616  82.5198104  22.6721824  77.3508852
  87.4784698  16.6570656  82.0526624  87.3942886  16.0496325  81.3177034
  86.6567404  17.1479674  82.0536121  94.5521982  30.0957820  81.2659792
  94.4792153  30.9012791  81.7779097  94.1099375  30.2949786  80.4407814
  94.3411761  29.3329590  74.7762614  93.5579283  29.8751270  74.8700839
  95.0404506  29.8503570  75.1756855  97.0120665  29.9944654  83.4217951
  97.7248637  30.6292119  83.3493853  96.5210694  30.0908520  82.6057953
  98.7338192  23.8995907  74.9935243  97.7994471  24.0197369  74.8239947
  98.9114861  22.9968373  74.7295253  94.2343380  17.2841602  77.1468504
  93.8641168  16.7312643  77.8349410  94.7302473  16.6799736  76.5943504
  92.0632579  27.7439097  84.2423522  92.7642038  28.3775580  84.3952916
  91.5927694  28.0853829  83.4819161 100.1886975  26.0857047  72.5271429
 100.4646818  25.9713642  73.4365303  99.3191473  25.6874532  72.4883602
  96.8241039  30.3343398  76.1704243  97.0063433  29.5165054  76.6331995
  97.6474025  30.5511090  75.7329133  97.1583204  29.2611583  73.4319291
  97.6870970  28.7504038  72.8189453  97.4211424  28.9454113  74.2964824
  87.6600297  27.2775452  81.1754625  88.2453734  26.5319140  81.3082529
  87.4625135  27.5879409  82.0591289  90.5138952  30.3126700  76.1917067
  89.8449327  30.7972827  75.7081107  90.3751822  30.5595920  77.1060446
  82.2517951  19.8481053  79.8959068  82.2902051  19.3144643  80.6896186
  81.7458244  19.3216258  79.2770045  94.6544221  32.3470443  82.7899725
  95.2062529  32.5102065  83.5548811  94.9950414  32.9374881  82.1179750
  89.6308714  14.6945593  83.3921610  89.6950040  15.5560424  82.9799008
  89.5675834  14.0819595  82.6593969  85.8826529  18.5745155  72.9712999
  86.1779970  17.6655833  72.9180053  84.9814565  18.5532894  72.6494002
  97.7912608  30.2952419  79.7763408  97.6663747  29.4942159  79.2674353
  98.4491699  30.7898612  79.2877377  89.4120776  16.6501151  78.9540548
  88.6907362  17.2637119  78.8148021  90.2014032  17.1858916  78.8757194
  99.8547516  28.0961439  81.4042958  98.9077852  27.9766790  81.3321284
 100.2030289  27.2083937  81.4869219  87.6114371  16.2559252  73.0952324
  87.2827077  15.3756631  72.9127430  87.9653741  16.2006921  73.9828714
  96.8593950  27.8914155  77.6047310  96.7118912  26.9630863  77.7854880
  97.6847443  27.9134246  77.1204385  90.7256194  16.5432222  73.4627802
  91.0652266  17.0718143  72.7406410  91.1728314  16.8812628  74.2386369
 100.4628071  28.7142714  78.6912183 101.3874619  28.5085575  78.5536634
 100.2943375  28.4659115  79.6001524  92.7124341  15.0406844  71.6621095
  93.4332703  15.4188097  71.1584812  92.0889645  15.7595721  71.7656073
  96.8555464  15.7451993  72.5979427  97.0719078  16.6276631  72.2968255
  96.3749531  15.3538206  71.8685069  91.5954685  18.7037706  79.1750172
  91.4499266  19.0178009  80.0674453  91.1179889  19.3222606  78.6221070
  93.4551068  15.6940254  79.2231061  93.4412637  14.7981347  78.8863359
  94.1723496  15.7010918  79.8569347 100.2523388  29.2328381  74.0474274
 100.4260265  28.6674804  73.2948127 100.7452279  30.0329276  73.8653764
  86.0700347  21.2443050  82.1137833  85.5253815  22.0202858  82.2458107
  86.9479697  21.5913855  81.9556954  92.8587964  14.5754634  74.4918631
  92.9803875  13.6471280  74.6909519  92.5690006  14.5893320  73.5796947
 101.2398560  28.5495146  71.1471172 101.9349465  29.1701838  71.3658487
 101.5821710  27.6990497  71.4223550  86.8566369  20.3712947  85.0067990
  86.1148105  20.5195582  85.5932620  86.5359114  20.6321212  84.1434739
 103.1389983  25.9994851  72.6758503 103.6641307  26.3382124  71.9507823
 103.0512336  25.0641867  72.4921638  94.8010032  29.9128925  84.8048380
  95.1097158  29.6678072  85.6771079  95.5985514  30.1175563  84.3167250
  94.8230644  32.0666835  77.0353756  94.3835634  31.5743213  77.7286613
  95.5738761  31.5239802  76.7945832  87.3022983  28.2578375  77.0378384
  88.1281003  27.9582147  76.6577028  86.9517035  27.4885998  77.4868173
  92.2704516  27.6104844  79.1076058  91.6484525  26.9475549  78.8078286
  92.9409383  27.6365976  78.4249706  85.5031588  26.1764702  77.9967318
  84.6663496  25.7486876  77.8151319  85.4755233  26.3697145  78.9338109
  91.8318023  26.1608767  72.5834519  91.9806143  26.8444231  71.9301191
  92.6384466  26.1413857  73.0983974  89.5870656  22.1873945  73.5895587
  89.3416698  21.2836275  73.7875798  89.7566571  22.1891095  72.6475065
  88.8566304  17.9202302  71.0881749  88.1635548  17.9946657  70.4321785
  88.6118055  17.1562646  71.6103266  95.3313429  28.6556897  70.0546266
  94.7587396  29.2747085  69.6016738  95.9046222  29.2056259  70.5886188
  98.5510688  28.9394048  71.1854848  99.4841361  28.8739609  71.3887724
  98.4633901  29.7750314  70.7269381 101.1798705  28.2559918  68.1458796
 101.1012337  27.9219782  69.0394554 102.0008372  28.7481686  68.1450268
  95.7160227  19.9917710  67.3962318  96.6619332  19.8623918  67.4650736
  95.3374472  19.2532372  67.8731747  93.9003144  17.9167687  67.3317204
  92.9934600  17.6200799  67.4079917  94.1779125  17.6197505  66.4651490
  84.8181085  19.2374050  77.7816250  84.4983869  18.3839358  77.4890624
  84.2714513  19.4522628  78.5374217  88.5960992  21.9536491  81.4985757
  88.8147002  22.8853599  81.5173790  89.0086766  21.5944465  82.2840560
  92.6701929  14.7754622  67.4729183  93.5321093  15.1009520  67.7325000
  92.8552273  13.9886118  66.9602249  84.6869345  22.8576961  79.7509372
  83.9932816  22.4430914  79.2379326  85.4342336  22.8997498  79.1542791
  86.6006087  22.7895215  77.6275387  86.5776775  22.8882903  76.6757270
  86.9106724  23.6360366  77.9492553  89.2593465  24.8471370  81.7422001
  90.2136719  24.8155313  81.6751932  89.0605989  24.3861994  82.5572227
  89.8492847  23.4172486  84.3092799  90.6685736  23.9116565  84.3327636
  90.1229655  22.5004454  84.2810366  99.6059443  15.8083239  73.6720754
  98.7185298  16.0932889  73.4540949 100.0213432  15.6477002  72.8248031
  87.6143694  30.3890990  78.7592199  87.4798162  29.6291391  78.1930197
  87.1975756  31.1131890  78.2920988  98.7502657  25.5727913  67.7668774
  99.4538507  25.7777916  68.3826430  98.0265306  26.1404675  68.0317858
  99.5800467  21.3237775  73.8871044  99.5235668  21.7806326  73.0478677
 100.1328810  20.5628459  73.7093887  90.7712820  31.2860307  78.9710641
  90.6545204  32.2305739  78.8689332  89.9505266  30.9833868  79.3596441
 100.6589354  26.0110443  69.8167234 101.4934958  25.5791641  69.6344709
 100.4973697  25.8392456  70.7444129 100.3135246  22.5142556  71.1823573
 100.2584050  22.3486827  70.2412018  99.6881302  23.2218589  71.3385763
  85.1027761  17.7510620  85.0084996  85.7486625  17.2409574  85.4972221
  84.8944912  18.4879302  85.5828421  91.7967334  31.9388569  82.1866570
  92.6994580  31.9712179  82.5033065  91.5704704  31.0089020  82.2012906
  93.5520936  30.6919555  78.8476648  92.6016567  30.6921417  78.7341021
  93.8553422  29.9452290  78.3312683 101.9550151  38.3342998  75.8380827
 101.3915016  38.2432935  75.0697114 101.8402546  37.5142903  76.3183319
  99.5014583  39.8294190  78.6765047 100.2935875  39.4885014  78.2611346
  99.7411233  39.9389165  79.5967200 101.4605337  39.0903103  71.5482426
 102.2336213  38.5432090  71.4095302 101.8130736  39.9547352  71.7596887
 103.5167904  37.1523875  71.3825251 103.4004162  36.4768778  72.0506335
 103.6270164  36.6656249  70.5657404 101.7092746  36.5554698  77.7835823
 100.7843243  36.4230912  77.9913515 101.9577159  37.3348917  78.2805766
  99.0701557  36.1987971  78.6179612  99.1993938  36.4522450  79.5319024
  98.3899009  36.7915679  78.2984267 103.2401045  46.8685221  74.7170086
 103.1625074  47.8193046  74.7958567 102.6362688  46.5231094  75.3745013
 102.2300844  38.8374761  79.4903719 102.8002201  39.2662029  78.8521204
 102.8208956  38.5557345  80.1887905  98.0170983  33.6709984  78.6630655
  97.2270037  33.9267513  78.1870765  98.5082230  34.4858322  78.7682695
  99.9685728  34.0354563  75.6214131  99.1716891  34.1473258  76.1397627
  99.7411320  34.3741216  74.7555022  96.3008686  33.9240475  81.0945645
  96.5516724  34.8087484  81.3603221  96.8368234  33.7445076  80.3220737
  98.9668811  39.7442812  74.0103551  99.4793331  40.5386062  74.1609116
  99.6191524  39.0469103  73.9437153 100.7763696  42.8608568  76.0926304
 100.9530324  43.7826533  75.9047288 101.5720529  42.5466988  76.5220684
 100.0616052  34.9073200  85.9688468  99.9469567  34.0058458  86.2695567
  99.2060570  35.1536897  85.6173284 101.8995011  44.3786742  82.0936647
 102.4502436  44.2503806  81.3213641 101.0606487  44.6781631  81.7431540
  96.9317728  38.0731466  74.7863122  97.7692950  38.4828475  74.5696830
  97.1095995  37.1330909  74.7563316 101.7933622  30.4343529  76.3106301
 102.3677374  30.2118710  75.5779494 102.3804605  30.5032223  77.0634903
 102.1203209  32.4647990  70.3302187 101.2840522  32.8022676  70.6511461
 101.9807979  32.3296970  69.3929324  96.9543899  35.4122182  75.4573855
  96.7568299  34.8191542  74.7324922  96.3990563  35.1074392  76.1749794
 102.8732982  33.9222348  75.3358827 102.0600848  34.2216519  75.7424019
 103.3691977  33.5278037  76.0533310 102.3647057  31.4940703  80.9520062
 103.0046436  31.3529463  80.2543026 101.5324588  31.2075217  80.5758664
  99.4490124  34.9386216  73.1414807  98.5187713  34.8770671  73.3584770
  99.5447596  34.4162168  72.3451449  99.3675674  31.4641028  75.7293049
  99.6282491  32.3786362  75.6202209 100.1892846  30.9965471  75.8789662
 100.8400599  32.8778786  82.8991874 101.5123652  32.6696148  82.2504522
 100.0130385  32.6800872  82.4597106 101.2428096  36.1521389  83.6594311
 101.1047894  35.4201627  84.2605850 102.1533020  36.0630289  83.3778498
 100.8787874  49.6170615  78.8618288 101.1184472  50.2489139  79.5397307
 100.0357071  49.2658655  79.1483648 101.9941590  32.3095217  67.5300093
 101.1171056  32.1884018  67.1662340 102.4699343  31.5181296  67.2778982
  93.5143730  37.0972377  77.6241601  94.2014770  36.7834107  77.0362616
  93.3591859  38.0013742  77.3508852  98.3178452  31.9862574  82.0526624
  98.2336641  31.3788243  81.3177034  97.4961158  32.4771592  82.0536121
 102.9026333  43.0731015  84.2423522 103.6035793  43.7067498  84.3952916
 102.4321448  43.4145747  83.4819161  98.4994051  42.6067370  81.1754625
  99.0847488  41.8611058  81.3082529  98.3018890  42.9171327  82.0591289
 101.3532706  45.6418617  76.1917067 100.6843082  46.1264745  75.7081107
 101.2145576  45.8887838  77.1060446  93.0911706  35.1772970  79.8959068
  93.1295806  34.6436561  80.6896186  92.5851999  34.6508176  79.2770045
 100.4702468  30.0237511  83.3921610 100.5343795  30.8852342  82.9799008
 100.4069589  29.4111512  82.6593969  96.7220284  33.9037072  72.9712999
  97.0173725  32.9947751  72.9180053  95.8208319  33.8824812  72.6494002
 100.2514531  31.9793069  78.9540548  99.5301116  32.5929037  78.8148021
 101.0407786  32.5150834  78.8757194  98.4508125  31.5851170  73.0952324
  98.1220831  30.7048549  72.9127430  98.8047496  31.5298839  73.9828714
 101.5649948  31.8724140  73.4627802 101.9046021  32.4010061  72.7406410
 102.0122069  32.2104546  74.2386369 102.4348440  34.0329624  79.1750172
 102.2893020  34.3469927  80.0674453 101.9573643  34.6514524  78.6221070
  96.9094102  36.5734968  82.1137833  96.3647570  37.3494776  82.2458107
  97.7873452  36.9205773  81.9556954  97.6960124  35.7004864  85.0067990
  96.9541860  35.8487500  85.5932620  97.3752868  35.9613130  84.1434739
  98.1416737  43.5870293  77.0378384  98.9674757  43.2874065  76.6577028
  97.7910789  42.8177916  77.4868173  96.3425342  41.5056620  77.9967318
  95.5057251  41.0778794  77.8151319  96.3148988  41.6989063  78.9338109
 102.6711777  41.4900685  72.5834519 102.8199898  42.1736149  71.9301191
 103.4778221  41.4705775  73.0983974 100.4264410  37.5165862  73.5895587
 100.1810452  36.6128192  73.7875798 100.5960325  37.5183013  72.6475065
  99.6960058  33.2494220  71.0881749  99.0029303  33.3238575  70.4321785
  99.4511810  32.4854564  71.6103266  95.6574839  34.5665968  77.7816250
  95.3377623  33.7131276  77.4890624  95.1108267  34.7814546  78.5374217
  99.4354747  37.2828409  81.4985757  99.6540756  38.2145516  81.5173790
  99.8480520  36.9236383  82.2840560  95.5263099  38.1868879  79.7509372
  94.8326570  37.7722832  79.2379326  96.2736090  38.2289416  79.1542791
  97.4399842  38.1187133  77.6275387  97.4170530  38.2174820  76.6757270
  97.7500478  38.9652284  77.9492553 100.0987219  40.1763288  81.7422001
 101.0530473  40.1447230  81.6751932  99.8999743  39.7153912  82.5572227
 100.6886602  38.7464404  84.3092799 101.5079491  39.2408483  84.3327636
 100.9623409  37.8296372  84.2810366  98.4537448  45.7182907  78.7592199
  98.3191916  44.9583308  78.1930197  98.0369511  46.4423807  78.2920988
 101.6106574  46.6152224  78.9710641 101.4938958  47.5597657  78.8689332
 100.7899020  46.3125786  79.3596441  95.9421516  33.0802538  85.0084996
  96.5880379  32.5701492  85.4972221  95.7338667  33.8171220  85.5828421
 102.6361088  47.2680486  82.1866570 103.5388335  47.3004097  82.5033065
 102.4098458  46.3380937  82.2012906  90.0394121  11.2940820  65.5863595
  90.2790719  11.9259344  66.2642614  89.1963318  10.9428860  65.8728954
  99.5014584  16.8356312  65.4010354 100.2935876  16.4947137  64.9856653
  99.7411235  16.9451287  66.3212507 101.4605338  16.0965226  58.2727732
 102.2336214  15.5494213  58.1340608 101.8130737  16.9609475  58.4842194
 103.2401046  23.8747344  61.4415393 103.1625076  24.8255169  61.5203874
 102.6362689  23.5293216  62.0990319 102.2300845  15.8436883  66.2149026
 102.8002202  16.2724152  65.5766510 102.8208957  15.5619468  66.9133211
  98.9668812  16.7504935  60.7348858  99.4793333  17.5448185  60.8854423
  99.6191525  16.0531225  60.6682459 100.7763697  19.8670691  62.8171611
 100.9530325  20.7888656  62.6292595 101.5720530  19.5529110  63.2465991
 101.8995012  21.3848865  68.8181953 102.4502437  21.2565928  68.0458947
 101.0606488  21.6843754  68.4676846  96.9317729  15.0793589  61.5108428
  97.7692951  15.4890597  61.2942136  97.1095997  14.1393031  61.4808622
 100.8787876  26.6232738  65.5863595 101.1184474  27.2551262  66.2642614
 100.0357072  26.2720778  65.8728954  93.5143731  14.1034500  64.3486907
  94.2014771  13.7896230  63.7607923  93.3591860  15.0075864  64.0754159
 102.9026334  20.0793138  70.9668829 103.6035794  20.7129621  71.1198223
 102.4321449  20.4207869  70.2064468  98.4994053  19.6129493  67.8999931
  99.0847489  18.8673181  68.0327835  98.3018891  19.9233449  68.7836595
 101.3532708  22.6480740  62.9162374 100.6843083  23.1326868  62.4326414
 101.2145577  22.8949961  63.8305752  96.9094103  13.5797091  68.8383139
  96.3647571  14.3556899  68.9703414  97.7873453  13.9267895  68.6802261
  98.1416739  20.5932416  63.7623691  98.9674759  20.2936188  63.3822335
  97.7910791  19.8240038  64.2113480  96.3425344  18.5118742  64.7212625
  95.5057252  18.0840917  64.5396626  96.3148989  18.7051185  65.6583416
 102.6711779  18.4962807  59.3079825 102.8199899  19.1798272  58.6546498
 103.4778222  18.4767897  59.8229281  95.5263100  15.1931002  66.4754678
  94.8326572  14.7784955  65.9624633  96.2736091  15.2351538  65.8788097
  97.4399843  15.1249256  64.3520693  97.4170531  15.2236943  63.4002576
  97.7500479  15.9714406  64.6737859 100.0987221  17.1825411  68.4667308
 101.0530474  17.1509353  68.3997239  99.8999744  16.7216034  69.2817533
 100.6886603  15.7526527  71.0338105 101.5079492  16.2470605  71.0572943
 100.9623411  14.8358495  71.0055673  98.4537450  22.7245030  65.4837505
  98.3191917  21.9645431  64.9175503  98.0369512  23.4485930  65.0166294
 101.6106575  23.6214347  65.6955948 101.4938960  24.5659780  65.5934638
 100.7899022  23.3187909  66.0841747 102.6361090  24.2742609  68.9111876
 103.5388336  24.3066219  69.2278371 102.4098460  23.3443060  68.9258212
  36.4242806  62.0840982 111.3746503  37.1973682  61.5369969 111.2359379
  36.7768205  62.9485231 111.5860964  38.7609084  58.2433648 109.0064953
  39.0134605  57.7215170 108.2448416  37.8233643  58.0799794 109.1091636
  43.9762444  62.6842277 111.5128353  43.3408277  62.7576903 112.2249257
  43.6459851  63.2735876 110.8347432  38.4805373  60.1461754 111.2089328
  38.3641631  59.4706658 111.8770412  38.5907633  59.6594128 110.3921481
  40.4642401  54.6361801 109.9097365  40.6316803  55.5042037 110.2767836
  40.2739570  54.7989083 108.9858655  40.4431622  57.0919459 110.8944032
  40.3231247  57.5376509 111.7329513  39.7484210  57.4404776 110.3357570
  46.1416688  57.5640932 111.7224366  47.0534544  57.7968318 111.5472064
  45.6326335  58.1477976 111.1599445  33.9306280  62.7380691 113.8367628
  34.4430801  63.5323942 113.9873193  34.5828993  62.0406982 113.7701230
  43.7919629  58.7344426 110.3011032  43.2766252  59.5049031 110.5399419
  43.5196937  58.0609562 110.9244093  43.5805932  56.6071518 112.1270813
  43.2756068  56.9217668 112.9780956  44.5336374  56.6852938 112.1698146
  37.0840679  55.4585869 110.1566264  36.2477991  55.7960556 110.4775538
  36.9445448  55.3234849 109.2193401  40.1704964  60.5841952 106.7798740
  39.2632026  60.3531205 106.9789889  40.6675996  59.7879571 106.9672722
  41.3493198  60.6854547 111.3022730  40.4404417  60.4013580 111.3995200
  41.3788281  61.1053625 110.4426037  41.0469285  62.2263290 108.6410809
  40.6088715  61.5099149 108.1816446  41.7879726  62.4539405 108.0795900
  45.1680513  61.0847672 108.2342866  44.5509684  60.3594500 108.1375919
  44.6997002  61.8457032 107.8909940  36.9579059  55.3033096 107.3564170
  36.0808525  55.1821897 106.9926417  37.4336812  54.5119175 107.1043059
  42.6586688  54.0681790 112.4243504  42.8750302  54.9506428 112.1232332
  42.1780755  53.6768003 111.6949146  37.6349247  64.4838564 112.4098596
  37.7837367  65.1674028 111.7565268  38.4415690  64.4643654 112.9248051
  41.1344652  66.9786694 109.8810343  40.5618619  67.5976881 109.4280815
  41.7077446  67.5286056 110.4150265  46.9829929  66.5789715 107.9722873
  46.9043560  66.2449578 108.8658631  47.8039596  67.0711483 107.9714345
  41.5191451  58.3147507 107.2226395  42.4650556  58.1853715 107.2914813
  41.1405696  57.5762169 107.6995824  39.7034368  56.2397483 107.1581281
  38.7965823  55.9430596 107.2343994  39.9810349  55.9427302 106.2915567
  38.4733153  53.0984419 107.2993260  39.3352317  53.4239317 107.5589077
  38.6583497  52.3115915 106.7866326  45.4090667  54.1313035 113.4984831
  44.5216522  54.4162686 113.2805026  45.8244656  53.9706799 112.6512108
  44.5533881  63.8957710 107.5932851  45.2569731  64.1007713 108.2090507
  43.8296529  64.4634472 107.8581935  46.1166470  60.8372353 111.0087650
  46.0615274  60.6716624 110.0676095  45.4912525  61.5448386 111.1649840
  42.4987181  42.0013968  97.7004675  41.8475160  42.5868048  97.3138689
  43.2931543  42.5320163  97.7599713  36.4242808  39.0903105  98.0991809
  37.1973684  38.5432092  97.9604685  36.7768207  39.9547354  98.3106271
  38.7609085  35.2495771  95.7310259  39.0134606  34.7277292  94.9693722
  37.8233645  35.0861916  95.8336943  43.9762446  39.6904400  98.2373659
  43.3408279  39.7639026  98.9494564  43.6459852  40.2797998  97.5592739
  38.4805374  37.1523877  97.9334634  38.3641632  36.4768780  98.6015719
  38.5907634  36.6656251  97.1166787  40.4642402  31.6423924  96.6342672
  40.6316804  32.5104160  97.0013143  40.2739571  31.8051205  95.7103961
  40.4431623  34.0981581  97.6189339  40.3231248  34.5438632  98.4574819
  39.7484211  34.4466899  97.0602877  38.2038515  46.8685223 101.2679470
  38.1262545  47.8193048 101.3467951  37.6000159  46.5231095 101.9254396
  46.1416689  34.5703054  98.4469673  47.0534545  34.8030441  98.2717370
  45.6326336  35.1540099  97.8844752  48.6275503  40.4883311 103.1927618
  47.9426542  40.8682212 102.6424651  48.7119353  41.0978637 103.9259566
  55.0878256  37.3553974 104.3130290  54.3341964  36.7861372 104.1574295
  55.2225797  37.3216638 105.2600925  40.4776884  42.2267376  99.9885010
  40.3422559  43.0718912 100.4169858  41.0186697  42.4286653  99.2250944
  33.9306281  39.7442814 100.5612935  34.4430802  40.5386064 100.7118500
  34.5828994  39.0469104 100.4946536  35.7401166  42.8608570 102.6435688
  35.9167794  43.7826535 102.4556672  36.5358000  42.5466989 103.0730068
  43.7919630  35.7406549  97.0256338  43.2766254  36.5111153  97.2644726
  43.5196939  35.0671685  97.6489400  48.7653904  38.4938903  98.9609512
  47.9883347  38.1550063  98.5164674  49.4445385  38.4991527  98.2864477
  43.5805933  33.6133641  98.8516120  43.2756069  33.9279790  99.7026263
  44.5336376  33.6915061  98.8943453  42.0252365  39.7723864 100.5009074
  41.4973727  39.0376624 100.1882311  41.5239868  40.5498541 100.2549042
  37.0840680  32.4647992  96.8811570  36.2477992  32.8022678  97.2020845
  36.9445450  32.3296971  95.9438707  40.1704966  37.5904075  93.5044047
  39.2632027  37.3593328  93.7035196  40.6675997  36.7941694  93.6918028
  43.0773044  46.3001582  96.4240733  42.4034743  46.6033278  97.0325691
  43.4638866  47.1030662  96.0746190  41.3493199  37.6916669  98.0268037
  40.4404418  37.4075702  98.1240506  41.3788283  38.1115748  97.1671344
  46.5812466  41.3023259 101.7959204  46.1274793  40.4614169 101.8524395
  45.9506433  41.9384657 102.1333984  45.0245406  43.1399756 102.7309022
  45.3168380  43.7004813 102.0121388  45.5344026  43.4328317 103.4862182
  41.0469287  39.2325413  95.3656115  40.6088717  38.5161272  94.9061753
  41.7879728  39.4601528  94.8041207  39.9879031  43.9180107 103.8202476
  39.9455210  44.1440953 102.8911008  40.9041730  43.6843481 103.9688277
  49.1642402  37.5082610 101.4232434  49.0260300  37.6984206 100.4953623
  48.8078620  38.2701993 101.8800485  41.2764260  46.4681254  98.6387812
  41.4516015  45.9969297  99.4533435  40.5897048  47.0947020  98.8669073
  45.1680514  38.0909795  94.9588173  44.5509685  37.3656623  94.8621226
  44.6997003  38.8519155  94.6155247  35.8425345  49.6170617 105.4127672
  36.0821943  50.2489141 106.0906691  34.9994541  49.2658657 105.6993031
  36.9579060  32.3095219  94.0809477  36.0808527  32.1884020  93.7171724
  37.4336813  31.5181297  93.8288366  40.1442986  44.6621509 101.3271998
  39.3610508  45.2043190 101.4210222  40.8435731  45.1795489 101.7266239
  44.5369417  39.2287826 101.5444626  43.6025696  39.3489289 101.3749331
  44.7146086  38.3260293 101.2804636  47.9241968  35.0705145 102.0794661
  48.3902421  35.9033137 102.0054963  48.3749469  34.6050127 102.7839919
  45.9918200  41.4148967  99.0780813  46.2678043  41.3005561  99.9874687
  45.1222698  41.0166451  99.0392986  42.6272264  45.6635317 102.7213626
  42.8094658  44.8456973 103.1841379  43.4505250  45.8803010 102.2838516
  42.9614429  44.5903503  99.9828675  43.4902196  44.0795957  99.3698837
  43.2242649  44.2746033 100.8474208  36.3170177  45.6418619 102.7426451
  35.6480552  46.1264747 102.2590491  36.1783047  45.8887840 103.6569829
  43.5943833  45.6244338 106.3272791  43.4694972  44.8234078 105.8183737
  44.2522924  46.1190532 105.8386761  42.6625175  43.2206075 104.1556693
  42.5150137  42.2922782 104.3364264  43.4878668  43.2426165 103.6713769
  46.2659296  44.0434633 105.2421566  47.1905844  43.8377495 105.1046017
  46.0974600  43.7951035 106.1510908  42.6586689  31.0743912  99.1488811
  42.8750303  31.9568550  98.8477639  42.1780756  30.6830126  98.4194453
  46.0554613  44.5620301 100.5983658  46.2291490  43.9966723  99.8457510
  46.5483504  45.3621196 100.4163148  51.9094004  37.3256724 102.2173957
  52.3525150  36.5764049 101.8193081  51.0320514  37.3166860 101.8347689
  47.0429785  43.8787065  97.6980556  47.7380690  44.4993758  97.9167871
  47.3852935  43.0282416  97.9732934  48.9421208  41.3286771  99.2267887
  49.4672532  41.6674043  98.5017207  48.8543561  40.3933786  99.0431021
  40.6261869  47.3958754 103.5863140  40.1866859  46.9035133 104.2795997
  41.3769986  46.8531722 103.3455215  37.6349248  41.4900686  99.1343902
  37.7837368  42.1736151  98.4810575  38.4415691  41.4705776  99.6493358
  51.4526868  38.7961962 104.6096405  52.2873760  39.2351766 104.7733965
  51.5885997  38.3200615 103.7904651  41.1344654  43.9848817  96.6055650
  40.5618621  44.6039004  96.1526121  41.7077447  44.5348179  97.1395572
  44.3541913  44.2685967  97.7364232  45.2872587  44.2031529  97.9397107
  44.2665126  45.1042234  97.2778764  46.9829930  43.5851837  94.6968179
  46.9043562  43.2511701  95.5903937  47.8039597  44.0773605  94.6959652
  41.5191452  35.3209630  93.9471702  42.4650557  35.1915838  94.0160120
  41.1405697  34.5824292  94.4241130  55.4984671  37.5129584 107.0450535
  56.2288060  37.2514872 107.6058238  54.8891617  36.7758305 107.0852603
  39.7034369  33.2459606  93.8826587  38.7965825  32.9492719  93.9589301
  39.9810350  32.9489424  93.0160874  38.4733154  30.1046541  94.0238566
  39.3352318  30.4301440  94.2834384  38.6583498  29.3178037  93.5111632
  45.4090668  31.1375158 100.2230138  44.5216523  31.4224809 100.0050332
  45.8244657  30.9768921  99.3757415  44.5533882  40.9019833  94.3178158
  45.2569732  41.1069835  94.9335813  43.8296531  41.4696595  94.5827241
  45.3831692  36.6529694 100.4380428  45.3266893  37.1098245  99.5988060
  45.9360035  35.8920379 100.2603271  49.1936498  32.4419426 101.2630547
  48.9373432  32.0416062 102.0938755  48.5689366  33.1563220 101.1380687
  53.5048836  35.1815499 103.7701839  52.9448394  35.2508688 104.5433401
  52.8992339  35.0056484 103.0501335  46.4620579  41.3402362  96.3676618
  47.2966183  40.9083560  96.1854093  46.3004922  41.1684376  97.2953512
  46.1166471  37.8434475  97.7332957  46.0615275  37.6778747  96.7921401
  45.4912527  38.5510508  97.8895147  39.3552161  46.0211475 105.3986032
  38.4047792  46.0213336 105.2850404  39.6584647  45.2744209 104.8822067
  55.0904854  51.8572013 106.4631795  55.7283264  51.7378760 105.7595135
  54.9725697  52.8052857 106.5219747  51.8994561  51.8099441 106.3993319
  51.5613072  51.6940506 105.5113854  52.7684329  51.4090606 106.3794325
  47.7581376  53.6634918 102.3890210  47.1946241  53.5724855 101.6206498
  47.6433771  52.8434822 102.8692703  52.3814344  52.9634293 112.3579525
  52.3702984  52.5687091 111.4860028  52.5434983  52.2300366 112.9513296
  45.3045808  55.1586109 105.2274431  46.0967100  54.8176934 104.8120730
  45.5442458  55.2681084 106.1476584  53.3380935  57.3305885  97.7004675
  52.6868915  57.9159966  97.3138689  54.1325298  57.8612080  97.7599713
  47.2636562  54.4195022  98.0991809  48.0367438  53.8724010  97.9604685
  47.6161961  55.2839272  98.3106271  49.1021605  55.7471405 111.3058709
  48.8111471  56.6517036 111.1905375  49.7378589  55.7887932 112.0202778
  50.0277812  53.1248253 107.8960068  50.6241384  52.9004276 107.1817031
  50.0852783  52.3832999 108.4985516  49.6002840  50.5787689  95.7310259
  49.8528361  50.0569210  94.9693722  48.6627399  50.4153834  95.8336943
  54.6446123  49.5823467 103.5385003  55.4309212  49.1642890 103.1875420
  54.9084827  50.4869559 103.7066651  54.8156200  55.0196317  98.2373659
  54.1802033  55.0930944  98.9494564  54.4853607  55.6089916  97.5592739
  60.0454550  49.5198700 104.4417981  60.7779722  48.9497917 104.6755811
  59.2893906  49.1320301 104.8824487  49.3199129  52.4815795  97.9334634
  49.2035387  51.8060698  98.6015719  49.4301389  51.9948168  97.1166787
  51.6630670  51.9425942 101.6381324  51.2988877  51.4156563 102.3494245
  52.5197786  51.5524411 101.4647809  57.5679970  43.2320274 108.9012590
  57.2363295  44.1015685 108.6773805  56.9725584  42.9156558 109.5806620
  51.3036157  46.9715841  96.6342672  51.4710559  47.8396078  97.0013143
  51.1133326  47.1343123  95.7103961  54.0611490  55.4332820 108.3008502
  53.7612213  56.3357859 108.1924310  53.7162549  55.1665003 109.1529655
  47.5123971  51.8846617 104.3345207  46.5874468  51.7522831 104.5422899
  47.7608384  52.6640836 104.8315149  57.4608634  47.9515360 105.9805940
  56.5525511  47.8830769 105.6864701  57.4096229  48.4287305 106.8087765
  51.2825377  49.4273499  97.6189339  51.1625003  49.8730550  98.4574819
  50.5877966  49.7758816  97.0602877  44.8732782  51.5279891 105.1688996
  45.0025163  51.7814370 106.0828408  44.1930234  52.1207599 104.8493651
  49.0432270  62.1977141 101.2679470  48.9656299  63.1484966 101.3467951
  48.4393913  61.8523013 101.9254396  59.3270280  46.1531799 107.7583814
  58.6844660  46.4464332 107.1123608  58.8225209  46.0384719 108.5637010
  56.9810444  49.8994972  98.4469673  57.8928300  50.1322359  98.2717370
  56.4720091  50.4832016  97.8844752  49.7895872  52.1790459 113.4858804
  50.5310556  52.7175503 113.2093628  49.0832857  52.8056748 113.6430356
  55.2651211  54.3219600 112.0830966  55.6734567  53.8802010 111.3385598
  54.5428473  53.7472227 112.3365158  51.6182281  49.2592207 109.4564522
  52.4643477  49.6831620 109.5999171  51.5580919  48.6025831 110.1503086
  55.5880026  54.8820790 105.8383254  54.9588888  55.0466505 105.1359322
  55.2005688  55.2962400 106.6094218  59.4669258  55.8175228 103.1927618
  58.7820296  56.1974130 102.6424651  59.5513107  56.4270555 103.9259566
  54.7681727  46.9196575 111.1145696  54.5242659  47.6738635 110.5779972
  55.0441657  47.2981923 111.9492943  56.7220189  53.4635187 109.7922962
  56.9337085  54.1066947 109.1157343  56.6749938  52.6297504 109.3244892
  54.3246418  46.0753008 106.6959534  53.4630897  46.3734262 106.9876271
  54.3508853  46.2923407 105.7640566  51.1407988  54.6195199 103.1033339
  51.6046333  54.8982902 102.3137962  50.8764786  53.7178643 102.9206430
  48.0332069  54.1666680 106.0413103  48.6033426  54.5953948 105.4030587
  48.6240181  53.8849265 106.7397288  50.0776874  50.7418351  99.9122905
  50.7800917  51.1939395 100.3796831  49.7457502  50.1002170 100.5402798
  43.8202208  49.0001904 105.2140038  43.0301262  49.2559432 104.7380149
  44.3113455  49.8150241 105.3192079  57.8366017  56.3407143 107.9645319
  58.6583461  55.9387330 107.6828001  57.8328420  56.2375377 108.9161435
  45.7716953  49.3646483 102.1723515  44.9748117  49.4765177 102.6907011
  45.5442545  49.7033135 101.3064405  51.6022621  55.8891186 110.1206030
  51.6667053  56.3511593 110.9564201  50.8933545  55.2588551 110.2488339
  42.1039911  49.2532394 107.6455029  42.3547949  50.1379404 107.9112605
  42.6399459  49.0736996 106.8730121  65.9272010  52.6845891 104.3130290
  65.1735719  52.1153289 104.1574295  66.0619552  52.6508556 105.2600925
  51.3170639  57.5559294  99.9885010  51.1816313  58.4010829 100.4169858
  51.8580451  57.7578571  99.2250944  44.7700036  55.0734732 100.5612935
  45.2824556  55.8677982 100.7118500  45.4222749  54.3761022 100.4946536
  46.5794921  58.1900488 102.6435688  46.7561549  59.1118453 102.4556672
  47.3751754  57.8758907 103.0730068  47.7026236  59.7078662 108.6446030
  48.2533661  59.5795725 107.8723024  46.8637712  60.0073551 108.2940923
  54.6663102  41.0789855 108.5183903  54.3227371  41.9691497 108.4423014
  55.0342065  40.8891513 107.6553488  42.7348953  53.4023386 101.3372505
  43.5724175  53.8120394 101.1206213  42.9127220  52.4622828 101.3072699
  54.6313385  51.0698467  97.0256338  54.1160008  51.8403071  97.2644726
  54.3590693  50.3963603  97.6489400  52.2160496  45.9148167 102.0841577
  51.3602092  45.5255018 101.9047215  52.6287448  45.9940128 101.2241362
  53.7459642  43.4494511 106.4833137  53.2424438  43.4124646 105.6700942
  54.0390249  44.3587253 106.5429793  49.9902528  43.5333240 105.4899318
  50.8555525  43.3376049 105.1305208  50.0580037  43.3043592 106.4168675
  59.6047659  53.8230821  98.9609512  58.8277102  53.4841981  98.5164674
  60.2839140  53.8283444  98.2864477  54.4199688  48.9425559  98.8516120
  54.1149824  49.2571708  99.7026263  55.3730130  49.0206979  98.8943453
  52.8646120  55.1015782 100.5009074  52.3367481  54.3668542 100.1882311
  52.3633623  55.8790458 100.2549042  57.8438966  53.2964802 105.6176120
  57.1862640  53.9864064 105.7056249  58.6479365  53.6861234 105.9610106
  47.5964847  45.7635448 102.8615685  48.1708599  45.5410630 102.1288878
  48.1835830  45.8324143 103.6144286  56.6544425  51.6509175 103.6680062
  57.1676306  52.2839167 104.1701771  57.3045649  51.0510371 103.3023422
  47.9234435  47.7939909  96.8811570  47.0871747  48.1314596  97.2020845
  47.7839204  47.6588889  95.9438707  49.8987515  42.6376697 101.5890755
  49.2451927  42.3225714 100.9647369  49.8567989  42.0152438 102.3150577
  53.9166799  61.6293499  96.4240733  53.2428498  61.9325196  97.0325691
  54.3032621  62.4322580  96.0746190  53.1325255  49.1258631 105.9138402
  52.2147817  49.3473578 105.7560090  53.5485399  49.2004941 105.0550109
  53.9160303  50.5250046 101.0441082  54.6632122  51.0371444 100.7348204
  54.1851893  50.2034099 101.9045476  52.1886953  53.0208587  98.0268037
  51.2798173  52.7367620  98.1240506  52.2182037  53.4407666  97.1671344
  57.4206221  56.6315177 101.7959204  56.9668548  55.7906086 101.8524395
  56.7900188  57.2676575 102.1333984  56.3639140  47.5607163 103.0259872
  55.6261897  47.0484549 103.3570114  56.6165914  47.1207544 102.2143149
  55.8639160  58.4691673 102.7309022  56.1562134  59.0296730 102.0121388
  56.3737781  58.7620234 103.4862182  56.4650768  40.3383415 103.6201641
  56.7709645  39.4780778 103.3327556  57.1903373  40.9301035 103.4200635
  42.7575124  50.7414101 102.0083239  42.5599524  50.1483462 101.2834305
  42.2021788  50.4366311 102.7259178  50.7371847  50.6337208 104.1277832
  50.7920457  49.6811044 104.0520309  49.9263050  50.7896647 104.6119130
  48.6764207  49.2514267 101.8868211  47.8632073  49.5508438 102.2933403
  49.1723202  48.8569956 102.6042693  50.8272785  59.2472024 103.8202476
  50.7848964  59.4732871 102.8911008  51.7435484  59.0135399 103.9688277
  54.2738419  49.7156092 110.7183105  54.6287807  49.9427565 111.5777571
  54.9210550  50.0474469 110.0960360  60.0036156  52.8374528 101.4232434
  59.8654055  53.0276124 100.4953623  59.6472375  53.5993911 101.8800485
  48.1678282  46.8232623 107.5029446  48.8077661  46.6821382 106.8052409
  47.3355813  46.5367136 107.1268048  60.0305536  54.9051055 106.4343705
  60.4642042  54.8126344 107.2826759  60.7437116  54.8808555 105.7963721
  48.9438586  56.1235053 103.6164438  49.7379185  55.6285373 103.4147013
  48.2330278  55.5952916 103.2532144  53.7633431  58.5053149 107.9676806
  53.8170453  59.0744085 108.7354522  52.8948212  58.6755034 107.6030843
  45.2521350  50.2678135  99.6924191  44.3218938  50.2062591  99.9094153
  45.3478822  49.7454088  98.8960832  45.1706899  46.7932948 102.2802433
  45.4313716  47.7078281 102.1711593  45.9924071  46.3257390 102.4299045
  46.6431824  48.2070705 109.4501257  47.3154877  47.9988067 108.8013906
  45.8161610  48.0092791 109.0106489  60.8921085  54.9474755 108.9676591
  61.0856975  55.8520566 109.2135866  60.7921703  54.4882175 109.8015176
  52.7221530  52.6713411 109.5263738  53.6513590  52.8224571 109.3532705
  52.3012560  52.7597432 108.6712384  51.5209862  56.6964075 107.2962275
  51.3820948  56.3282860 108.1688214  50.7324458  57.2111715 107.1246233
  52.1158014  61.7973172  98.6387812  52.2909770  61.3261215  99.4533435
  51.4290802  62.4238938  98.8669073  53.0715077  56.0745678 104.6851113
  52.7364910  56.0346448 105.5808763  52.5719023  55.4090394 104.2121523
  47.0459321  51.4813308 110.2103694  46.9079119  50.7493547 110.8115233
  47.9564245  51.3922208 109.9287882  56.0074269  53.4201712  94.9588173
  55.3903439  52.6948541  94.8621226  55.5390757  54.1811073  94.6155247
  49.6741622  51.1933267 109.6987374  50.3841240  50.5526460 109.6573992
  49.6310930  51.4446162 110.6213555  46.6819099  64.9462535 105.4127672
  46.9215698  65.5781059 106.0906691  45.8388296  64.5950575 105.6993031
  47.7972815  47.6387137  94.0809477  46.9202281  47.5175937  93.7171724
  48.2730568  46.8473215  93.8288366  39.3174955  52.4264296 104.1750984
  40.0045995  52.1126026 103.5872000  39.1623084  53.3305661 103.9018236
  44.1209677  47.3154493 108.6036008  44.0367866  46.7080163 107.8686418
  43.2992383  47.8063511 108.6045504  51.1946961  60.7541657 107.8169176
  51.1217133  61.5596629 108.3288481  50.7524354  60.9533623 106.9917197
  50.9836741  59.9913427 101.3271998  50.2004263  60.5335107 101.4210222
  51.6829486  60.5087407 101.7266239  54.2933391  45.8008057 103.9706203
  54.7902090  45.0478019 103.6507273  53.5220372  45.8372373 103.4049412
  62.1463148  51.5048422 105.6124495  62.1353025  52.3873137 105.2418428
  61.2780528  51.1519973 105.4179032  55.3763172  54.5579744 101.5444626
  54.4419450  54.6781206 101.3749331  55.5539840  53.6552210 101.2804636
  50.8768360  47.9425439 103.6977888  50.5066147  47.3896480 104.3858793
  51.3727452  47.3383573 103.1452888  58.7635723  50.3997063 102.0794661
  59.2296175  51.2325055 102.0054963  59.2143223  49.9342045 102.7839919
  48.7057558  58.4022935 110.7932906  49.4067018  59.0359417 110.9462300
  48.2352673  58.7437666 110.0328545  56.8311954  56.7440884  99.0780813
  57.1071798  56.6297479  99.9874687  55.9616453  56.3458369  99.0392986
  56.7352386  42.7677650 106.1185562  55.8215465  42.9981877 106.2867769
  57.1645487  42.8516094 106.9699594  56.5058844  50.9567542 108.6185456
  55.8530294  51.2043449 107.9637909  56.8839224  50.1431680 108.2847933
  53.4666018  60.9927235 102.7213626  53.6488413  60.1748891 103.1841379
  54.2899004  61.2094927 102.2838516  53.8008184  59.9195420  99.9828675
  54.3295950  59.4087875  99.3698837  54.0636403  59.6037950 100.8474208
  44.3025276  57.9359290 107.7264008  44.8878713  57.1902977 107.8591912
  44.1050115  58.2463246 108.6100672  47.1563932  60.9710537 102.7426451
  46.4874307  61.4556665 102.2590491  47.0176801  61.2179757 103.6569829
  38.8942931  50.5064890 106.4468451  38.9327031  49.9728480 107.2405570
  38.3883224  49.9800095 105.8279429  42.5251509  49.2328992  99.5222383
  42.8204950  48.3239670  99.4689436  41.6239544  49.2116731  99.2003385
  54.4337587  60.9536256 106.3272791  54.3088727  60.1525996 105.8183737
  55.0916678  61.4482449 105.8386761  46.0545756  47.3084988 105.5049931
  45.3332341  47.9220956 105.3657405  46.8439011  47.8442753 105.4266577
  56.4972496  58.7545276 107.9552341  55.5502831  58.6350627 107.8830668
  56.8455269  57.8667774 108.0378603  44.2539350  46.9143090  99.6461708
  43.9252056  46.0340468  99.4636814  44.6078721  46.8590758 100.5338097
  53.5018929  58.5497992 104.1556693  53.3543891  57.6214700 104.3364264
  54.3272423  58.5718083 103.6713769  47.3681173  47.2016059 100.0137186
  47.7077246  47.7301981  99.2915794  47.8153294  47.5396465 100.7895752
  57.1053051  59.3726551 105.2421566  58.0299598  59.1669412 105.1046017
  56.9368354  59.1242952 106.1510908  50.0624614  45.5853110 109.4640254
  49.7221435  44.7860923 109.8660934  49.3563620  45.8854821 108.8917087
  50.7141086  42.6702423 107.9167577  51.5367155  42.1962901 107.7946467
  50.9579150  43.4492906 108.4166263  49.3549320  45.6990681  98.2130478
  50.0757683  46.0771934  97.7094195  48.7314625  46.4179558  98.3165456
  53.4980443  46.4035830  99.1488811  53.7144058  47.2860468  98.8477639
  53.0174511  46.0122043  98.4194453  48.2379665  49.3621543 105.7259555
  48.0924245  49.6761846 106.6183837  47.7604868  49.9806443 105.1730454
  50.0976048  46.3524091 105.7740445  50.0837616  45.4565184 105.4372743
  50.8148476  46.3594755 106.4078731  51.9502178  46.7861431 107.8193572
  51.6919956  47.7078502 107.8177903  51.4187219  46.3891866 108.5094036
  56.8948367  59.8912218 100.5983658  57.0685245  59.3258641  99.8457510
  57.3877258  60.6913113 100.4163148  42.7125327  51.9026888 108.6647216
  42.1678795  52.6786696 108.7967491  43.5904677  52.2497692 108.5066338
  49.5012944  45.2338471 101.0428015  49.6228855  44.3055118 101.2418903
  49.2114986  45.2477157 100.1306330  52.3704134  42.9193382 104.1794735
  52.3925831  42.9832715 103.2246714  52.7872193  42.0797891 104.3735241
  62.7487758  52.6548641 102.2173957  63.1918904  51.9055967 101.8193081
  61.8714269  52.6458778 101.8347689  57.8823540  59.2078983  97.6980556
  58.5774444  59.8285676  97.9167871  58.2246690  58.3574334  97.9732934
  59.7814963  56.6578688  99.2267887  60.3066287  56.9965961  98.5017207
  59.6937315  55.7225704  99.0431021  51.4655623  62.7250672 103.5863140
  51.0260614  62.2327050 104.2795997  52.2163740  62.1823639 103.3455215
  43.9447962  58.9162213 103.5887768  44.7705982  58.6165984 103.2086412
  43.5942014  58.1469835 104.0377557  48.9129496  58.2688681 105.6585442
  48.2909505  57.6059386 105.3587669  49.5834363  58.2949813 104.9759089
  42.1456567  56.8348539 104.5476702  41.3088476  56.4070713 104.3660703
  42.1180213  57.0280982 105.4847493  48.4743003  56.8192604  99.1343902
  48.6231123  57.5028069  98.4810575  49.2809446  56.7997694  99.6493358
  56.8810506  50.1234986 113.1611120  57.7820369  49.9841451 112.8695118
  56.9558481  50.2889441 114.1009297  62.2920623  54.1253880 104.6096405
  63.1267514  54.5643684 104.7733965  62.4279752  53.6492533 103.7904651
  59.3412129  51.6833615 110.5573893  59.8166250  51.8761261 109.7492744
  58.4177694  51.7392800 110.3117276  46.2295636  52.8457782 100.1404971
  45.9841677  51.9420112 100.3385181  46.3991550  52.8474932  99.1984449
  53.9192345  43.7181458 109.5229727  54.4374289  44.4542485 109.1976215
  53.5647478  44.0245451 110.3576486  45.4991283  48.5786139  97.6391133
  44.8060528  48.6530494  96.9831168  45.2543035  47.8146483  98.1612649
  54.1704940  40.1381741 105.0430623  54.4506693  39.4704930 105.6691050
  54.9555546  40.3310836 104.5305287  51.9738408  59.3140735  96.6055650
  51.4012375  59.9330922  96.1526121  52.5471202  59.8640096  97.1395572
  58.0413798  48.5599375 108.7902198  58.9931221  48.6597472 108.8114422
  57.8717248  47.7677643 109.3000283  56.0628177  45.6454958 108.9761599
  55.4678109  45.9259971 108.2808088  55.7777874  46.1348859 109.7478340
  55.1935668  59.5977885  97.7364232  56.1266341  59.5323446  97.9397107
  55.1058881  60.4334152  97.2778764  57.8223685  58.9143755  94.6968179
  57.7437316  58.5803619  95.5903937  58.6433351  59.4065523  94.6959652
  60.5201876  51.7805494 107.9044498  60.4878196  50.8421495 108.0904182
  61.1302499  51.8589531 107.1710323  52.3585207  50.6501547  93.9471702
  53.3044311  50.5207755  94.0160120  51.9799452  49.9116209  94.4241130
  60.6696364  48.5716538 107.9502781  60.1535413  47.7874994 107.7632710
  61.5536313  48.2435254 108.1149301  58.3307091  42.3157553 103.9098594
  58.1331912  42.0072642 104.7941926  58.9406797  43.0419192 104.0396524
  66.3378426  52.8421501 107.0450535  67.0681814  52.5806789 107.6058238
  65.7285371  52.1050223 107.0852603  64.4193723  50.9829364 107.6424986
  63.6926886  50.8485329 107.0341478  64.0041010  51.2906192 108.4481704
  50.5428124  48.5751524  93.8826587  49.6359579  48.2784636  93.9589301
  50.8204105  48.2781342  93.0160874  41.4606064  49.8957887 104.3325634
  41.1408848  49.0423195 104.0400008  40.9139492  50.1106465 105.0883601
  45.2385972  52.6120328 108.0495140  45.4571981  53.5437436 108.0683174
  45.6511745  52.2528303 108.8349944  52.1590189  43.1188413 100.0370829
  51.3490918  42.7735498 100.4126075  52.8474606  42.8095957 100.6258440
  54.0880738  42.1966460 101.6595125  54.6411776  42.6161914 102.3185148
  54.3250824  41.2702208 101.7018081  49.3126908  45.4338459  94.0238566
  50.1746072  45.7593357  94.2834384  49.4977252  44.6469955  93.5111632
  41.3294324  53.5160799 106.3018755  40.6357796  53.1014751 105.7888710
  42.0767315  53.5581335 105.7052174  57.4659545  44.3066985 101.1673789
  56.8858214  44.9651789 100.7851842  57.1995477  43.4844330 100.7561207
  55.9163111  43.7072043 103.3695110  56.4162890  43.8188578 102.5609429
  56.5598719  43.4033096 104.0095918  43.2431067  53.4479052 104.1784770
  43.2201755  53.5466740 103.2266653  43.5531703  54.2944203 104.5001936
  45.9018444  55.5055207 108.2931385  46.8561698  55.4739150 108.2261316
  45.7030968  55.0445831 109.1081610  46.4917827  54.0756323 110.8602182
  47.3110716  54.5700402 110.8837020  46.7654634  53.1588292 110.8319750
  56.2484423  46.4667076 100.2230138  55.3610278  46.7516726 100.0050332
  56.6638412  46.3060839  99.3757415  59.5998959  46.4913597 103.9384477
  60.3759349  46.9810049 104.2109094  58.8747093  46.9171651 104.3956346
  62.0371518  47.2041216 104.9958418  62.6316008  46.9636952 104.2851726
  62.1098101  46.4848347 105.6231954  44.2568673  61.0474827 105.3101582
  44.1223141  60.2875228 104.7439580  43.8400736  61.7715727 104.8430371
  56.2225447  51.9821612 100.4380428  56.1660648  52.4390163  99.5988060
  56.7753789  51.2212296 100.2603271  60.0330252  47.7711344 101.2630547
  59.7767187  47.3707979 102.0938755  59.4083121  48.4855138 101.1380687
  64.3442590  50.5107417 103.7701839  63.7842148  50.5800606 104.5433401
  63.7386094  50.3348401 103.0501335  47.4137799  61.9444144 105.5220025
  47.2970183  62.8889576 105.4198715  46.5930245  61.6417705 105.9105824
  57.3014334  56.6694280  96.3676618  58.1359938  56.2375478  96.1854093
  57.1398677  56.4976293  97.2953512  56.9560226  53.1726393  97.7332957
  56.9009030  53.0070664  96.7921401  56.3306281  53.8802426  97.8895147
  50.2656351  42.6734502  97.3118275  50.2535021  43.6176342  97.4686546
  51.1579773  42.4904647  97.0177737  48.4392313  62.5972406 108.7375954
  49.3419560  62.6296016 109.0542448  48.2129683  61.6672857 108.7522289
  50.1945915  61.3503392 105.3986032  49.2441546  61.3505254 105.2850404
  50.4978401  60.6036127 104.8822067  54.0808471  39.2677279 101.5664212
  53.3140867  38.7135765 101.7120895  54.4919176  39.3399147 102.4278364
  58.5975131  68.9926835 102.3890210  58.0339996  68.9016772 101.6206498
  58.4827526  68.1726740 102.8692703  58.1030317  69.7486940  98.0991809
  58.8761193  69.2015927  97.9604685  58.4555716  70.6131189  98.3106271
  60.4396594  65.9079606  95.7310259  60.6922115  65.3861128  94.9693722
  59.5021154  65.7445752  95.8336943  65.6549955  70.3488235  98.2373659
  65.0195788  70.4222861  98.9494564  65.3247361  70.9381834  97.5592739
  60.1592883  67.8107712  97.9334634  60.0429141  67.1352616  98.6015719
  60.2695143  67.3240086  97.1166787  62.5024424  67.2717859 101.6381324
  62.1382631  66.7448480 102.3494245  63.3591540  66.8816328 101.4647809
  62.1429911  62.3007759  96.6342672  62.3104313  63.1687995  97.0013143
  61.9527080  62.4635041  95.7103961  62.1219132  64.7565416  97.6189339
  62.0018757  65.2022467  98.4574819  61.4271720  65.1050734  97.0602877
  67.8204198  65.2286890  98.4469673  68.7322054  65.4614276  98.2717370
  67.3113845  65.8123934  97.8844752  60.9170628  66.0710269  99.9122905
  61.6194672  66.5231312 100.3796831  60.5851257  65.4294087 100.5402798
  54.6595962  64.3293821 105.2140038  53.8695016  64.5851350 104.7380149
  55.1507210  65.1442159 105.3192079  56.6110708  64.6938400 102.1723515
  55.8141871  64.8057095 102.6907011  56.3836300  65.0325053 101.3064405
  55.6093790  70.4026649 100.5612935  56.1218311  71.1969899 100.7118500
  56.2616503  69.7052940 100.4946536  53.5742707  68.7315304 101.3372505
  54.4117929  69.1412312 101.1206213  53.7520975  67.7914746 101.3072699
  65.4707139  66.3990384  97.0256338  64.9553763  67.1694989  97.2644726
  65.1984448  65.7255520  97.6489400  63.0554250  61.2440085 102.0841577
  62.1995847  60.8546935 101.9047215  63.4681202  61.3232046 101.2241362
  60.8296283  58.8625158 105.4899318  61.6949280  58.6667967 105.1305208
  60.8973792  58.6335510 106.4168675  65.2593442  64.2717476  98.8516120
  64.9543578  64.5863625  99.7026263  66.2123885  64.3498896  98.8943453
  58.4358602  61.0927366 102.8615685  59.0102354  60.8702547 102.1288878
  59.0229584  61.1616060 103.6144286  58.7628189  63.1231827  96.8811570
  57.9265501  63.4606513  97.2020845  58.6232959  62.9880807  95.9438707
  60.7381270  57.9668615 101.5890755  60.0845682  57.6517632 100.9647369
  60.6961744  57.3444355 102.3150577  61.8492474  68.2487910  93.5044047
  60.9419536  68.0177163  93.7035196  62.3463506  67.4525529  93.6918028
  64.7554058  65.8541964 101.0441082  65.5025877  66.3663361 100.7348204
  65.0245647  65.5326017 101.9045476  63.0280708  68.3500505  98.0268037
  62.1191927  68.0659538  98.1240506  63.0575792  68.7699583  97.1671344
  67.3044522  55.6675332 103.6201641  67.6103399  54.8072696 103.3327556
  68.0297127  56.2592952 103.4200635  53.5968878  66.0706019 102.0083239
  53.3993278  65.4775380 101.2834305  53.0415542  65.7658229 102.7259178
  62.7256796  69.8909248  95.3656115  62.2876226  69.1745107  94.9061753
  63.4667237  70.1185363  94.8041207  59.5157962  64.5806185 101.8868211
  58.7025827  64.8800356 102.2933403  60.0116956  64.1861874 102.6042693
  56.0915104  65.5970053  99.6924191  55.1612692  65.5354508  99.9094153
  56.1872576  65.0746006  98.8960832  56.0100653  62.1224866 102.2802433
  56.2707470  63.0370199 102.1711593  56.8317825  61.6549308 102.4299045
  66.8468023  68.7493630  94.9588173  66.2297194  68.0240458  94.8621226
  66.3784512  69.5102990  94.6155247  58.6366569  62.9679054  94.0809477
  57.7596036  62.8467855  93.7171724  59.1124322  62.1765133  93.8288366
  50.1568709  67.7556214 104.1750984  50.8439749  67.4417944 103.5872000
  50.0016838  68.6597579 103.9018236  65.1327145  61.1299974 103.9706203
  65.6295845  60.3769937 103.6507273  64.3614127  61.1664291 103.4049412
  61.7162114  63.2717357 103.6977888  61.3459902  62.7188398 104.3858793
  62.2121207  62.6675491 103.1452888  49.7336686  65.8356807 106.4468451
  49.7720785  65.3020398 107.2405570  49.2276978  65.3092013 105.8279429
  53.3645263  64.5620910  99.5222383  53.6598704  63.6531588  99.4689436
  52.4633299  64.5408649  99.2003385  56.8939510  62.6376906 105.5049931
  56.1726096  63.2512874 105.3657405  57.6832766  63.1734671 105.4266577
  55.0933105  62.2435007  99.6461708  54.7645811  61.3632386  99.4636814
  55.4472475  62.1882676 100.5338097  58.2074928  62.5307977 100.0137186
  58.5471000  63.0593898  99.2915794  58.6547048  62.8688383 100.7895752
  60.1943075  61.0282599  98.2130478  60.9151437  61.4063851  97.7094195
  59.5708379  61.7471475  98.3165456  64.3374198  61.7327748  99.1488811
  64.5537812  62.6152385  98.8477639  63.8568265  61.3413961  98.4194453
  60.3406698  60.5630389 101.0428015  60.4622609  59.6347035 101.2418903
  60.0508740  60.5769075 100.1306330  63.2097888  58.2485300 104.1794735
  63.2319585  58.3124633 103.2246714  63.6265947  57.4089808 104.3735241
  59.3136757  72.1484522  99.1343902  59.4624877  72.8319986  98.4810575
  60.1203200  72.1289612  99.6493358  57.0689390  68.1749699 100.1404971
  56.8235432  67.2712029 100.3385181  57.2385305  68.1766850  99.1984449
  56.3385038  63.9078057  97.6391133  55.6454282  63.9822412  96.9831168
  56.0936789  63.1438401  98.1612649  65.0098694  55.4673658 105.0430623
  65.2900448  54.7996847 105.6691050  65.7949301  55.6602754 104.5305287
  62.8132163  74.6432652  96.6055650  62.2406130  75.2622839  96.1526121
  63.3864956  75.1932014  97.1395572  68.6617439  74.2435673  94.6968179
  68.5831071  73.9095536  95.5903937  69.4827106  74.7357441  94.6959652
  63.1978961  65.9793465  93.9471702  64.1438066  65.8499673  94.0160120
  62.8193206  65.2408127  94.4241130  69.1700846  57.6449471 103.9098594
  68.9725667  57.3364559 104.7941926  69.7800551  58.3711110 104.0396524
  61.3821878  63.9043441  93.8826587  60.4753334  63.6076554  93.9589301
  61.6597859  63.6073259  93.0160874  52.2999819  65.2249805 104.3325634
  51.9802603  64.3715113 104.0400008  51.7533247  65.4398383 105.0883601
  62.9983944  58.4480331 100.0370829  62.1884672  58.1027416 100.4126075
  63.6868361  58.1387875 100.6258440  64.9274492  57.5258378 101.6595125
  65.4805531  57.9453831 102.3185148  65.1644579  56.5994126 101.7018081
  60.1520663  60.7630377  94.0238566  61.0139827  61.0885275  94.2834384
  60.3371007  59.9761872  93.5111632  68.3053299  59.6358903 101.1673789
  67.7251968  60.2943707 100.7851842  68.0389232  58.8136248 100.7561207
  66.7556866  59.0363961 103.3695110  67.2556644  59.1480495 102.5609429
  67.3992474  58.7325014 104.0095918  67.0878177  61.7958993 100.2230138
  66.2004032  62.0808644 100.0050332  67.5032166  61.6352757  99.3757415
  66.2321391  71.5603668  94.3178158  66.9357241  71.7653671  94.9335813
  65.5084040  72.1280430  94.5827241  67.7953980  68.5018311  97.7332957
  67.7402784  68.3362582  96.7921401  67.1700036  69.2094344  97.8895147
  61.1050106  58.0026420  97.3118275  61.0928776  58.9468260  97.4686546
  61.9973528  57.8196565  97.0177737  64.9202225  54.5969196 101.5664212
  64.1534621  54.0427683 101.7120895  65.3312930  54.6691065 102.4278364
  42.4987182  19.0076090  84.4249982  41.8475162  19.5930171  84.0383995
  43.2931545  19.5382285  84.4845019  36.4242809  16.0965227  84.8237116
  37.1973685  15.5494214  84.6849992  36.7768208  16.9609477  85.0351577
  38.7609087  12.2557893  82.4555566  39.0134607  11.7339415  81.6939029
  37.8233646  12.0924039  82.5582250  43.9762447  16.6966522  84.9618966
  43.3408280  16.7701149  85.6739871  43.6459853  17.2860121  84.2838045
  38.4805375  14.1585999  84.6579941  38.3641634  13.4830903  85.3261025
  38.5907635  13.6718373  83.8412094  40.4642403   8.6486046  83.3587979
  40.6316806   9.5166283  83.7258450  40.2739572   8.8113328  82.4349268
  40.4431624  11.1043704  84.3434646  40.3231249  11.5500755  85.1820126
  39.7484213  11.4529021  83.7848184  38.2038516  23.8747345  87.9924777
  38.1262546  24.8255171  88.0713257  37.6000160  23.5293218  88.6499703
  46.1416690  11.5765177  85.1714980  47.0534547  11.8092564  84.9962677
  45.6326337  12.1602221  84.6090058  48.6275505  17.4945433  89.9172925
  47.9426543  17.8744335  89.3669958  48.7119354  18.1040760  90.6504873
  55.0878257  14.3616096  91.0375597  54.3341966  13.7923494  90.8819602
  55.2225798  14.3278761  91.9846232  40.4776885  19.2329498  86.7130316
  40.3422560  20.0781034  87.1415164  41.0186698  19.4348776  85.9496250
  33.9306283  16.7504936  87.2858242  34.4430803  17.5448187  87.4363806
  34.5828995  16.0531227  87.2191843  35.7401167  19.8670693  89.3680995
  35.9167796  20.7888657  89.1801979  36.5358001  19.5529112  89.7975375
  43.7919632  12.7468671  83.7501645  43.2766255  13.5173276  83.9890032
  43.5196940  12.0733808  84.3734706  48.7653906  15.5001026  85.6854819
  47.9883348  15.1612186  85.2409981  49.4445387  15.5053649  85.0109784
  43.5805935  10.6195764  85.5761426  43.2756070  10.9341913  86.4271569
  44.5336377  10.6977183  85.6188759  42.0252367  16.7785987  87.2254380
  41.4973728  16.0438746  86.9127618  41.5239869  17.5560663  86.9794349
  37.0840681   9.4710114  83.6056877  36.2477994   9.8084801  83.9266152
  36.9445451   9.3359094  82.6684014  40.1704967  14.5966197  80.2289353
  39.2632029  14.3655451  80.4280502  40.6675999  13.8003816  80.4163335
  43.0773046  23.3063704  83.1486039  42.4034744  23.6095401  83.7570997
  43.4638868  24.1092785  82.7991496  41.3493200  14.6978792  84.7513343
  40.4404419  14.4137825  84.8485813  41.3788284  15.1177871  83.8916650
  46.5812468  18.3085381  88.5204511  46.1274795  17.4676291  88.5769701
  45.9506434  18.9446780  88.8579291  45.0245407  20.1461878  89.4554329
  45.3168381  20.7066935  88.7366695  45.5344027  20.4390439  90.2107488
  41.0469288  16.2387536  82.0901422  40.6088718  15.5223395  81.6307059
  41.7879729  16.4663650  81.5286513  39.9879032  20.9242229  90.5447782
  39.9455211  21.1503076  89.6156314  40.9041731  20.6905604  90.6933583
  49.1642403  14.5144733  88.1477740  49.0260301  14.7046329  87.2198930
  48.8078622  15.2764116  88.6045792  41.2764261  23.4743377  85.3633119
  41.4516016  23.0031420  86.1778741  40.5897049  24.1009143  85.5914379
  45.1680516  15.0971917  81.6833479  44.5509686  14.3718745  81.5866532
  44.6997004  15.8581278  81.3400554  35.8425346  26.6232739  92.1372979
  36.0821944  27.2551264  92.8151997  34.9994543  26.2720780  92.4238338
  36.9579062   9.3157342  80.8054784  36.0808528   9.1946142  80.4417030
  37.4336815   8.5243420  80.5533672  40.1442988  21.6683632  88.0517304
  39.3610509  22.2105312  88.1455529  40.8435733  22.1857612  88.4511545
  44.5369418  16.2349949  88.2689933  43.6025697  16.3551411  88.0994637
  44.7146087  15.3322415  88.0049943  47.9241970  12.0767268  88.8039967
  48.3902422  12.9095260  88.7300270  48.3749470  11.6112249  89.5085226
  45.9918201  18.4211089  85.8026119  46.2678045  18.3067684  86.7119993
  45.1222700  18.0228574  85.7638292  42.6272265  22.6697440  89.4458933
  42.8094659  21.8519096  89.9086685  43.4505251  22.8865132  89.0083823
  42.9614430  21.5965625  86.7073981  43.4902197  21.0858080  86.0944143
  43.2242650  21.2808155  87.5719514  36.3170178  22.6480742  89.4671757
  35.6480554  23.1326869  88.9835797  36.1783048  22.8949962  90.3815136
  43.5943834  22.6306461  93.0518098  43.4694974  21.8296201  92.5429043
  44.2522925  23.1252654  92.5632068  42.6625176  20.2268197  90.8802000
  42.5150138  19.2984905  91.0609570  43.4878669  20.2488288  90.3959075
  46.2659298  21.0496756  91.9666873  47.1905845  20.8439617  91.8291324
  46.0974601  20.8013157  92.8756214  42.6586690   8.0806035  85.8734117
  42.8750305   8.9630673  85.5722946  42.1780757   7.6892248  85.1439759
  46.0554614  21.5682423  87.3228964  46.2291491  21.0028846  86.5702817
  46.5483505  22.3683318  87.1408454  51.9094005  14.3318846  88.9419264
  52.3525151  13.5826172  88.5438387  51.0320515  14.3228983  88.5592996
  47.0429786  20.8849188  84.4225863  47.7380691  21.5055880  84.6413177
  47.3852937  20.0344539  84.6978240  48.9421209  18.3348893  85.9513193
  49.4672534  18.6736166  85.2262513  48.8543562  17.3995909  85.7676328
  40.6261870  24.4020877  90.3108447  40.1866861  23.9097255  91.0041303
  41.3769987  23.8593844  90.0700522  37.6349249  18.4962809  85.8589209
  37.7837370  19.1798273  85.2055882  38.4415693  18.4767899  86.3738665
  51.4526870  15.8024085  91.3341712  52.2873761  16.2413889  91.4979272
  51.5885999  15.3262738  90.5149957  41.1344655  20.9910939  83.3300956
  40.5618622  21.6101127  82.8771428  41.7077448  21.5410301  83.8640878
  44.3541915  21.2748090  84.4609538  45.2872588  21.2093651  84.6642414
  44.2665127  22.1104356  84.0024071  46.9829931  20.5913960  81.4213486
  46.9043563  20.2573824  82.3149244  47.8039598  21.0835728  81.4204958
  41.5191453  12.3271752  80.6717009  42.4650558  12.1977960  80.7405427
  41.1405698  11.5886414  81.1486437  55.4984672  14.5191706  93.7695841
  56.2288061  14.2576994  94.3303545  54.8891618  13.7820428  93.8097909
  39.7034370  10.2521729  80.6071894  38.7965826   9.9554841  80.6834608
  39.9810351   9.9551547  79.7406180  38.4733155   7.1108664  80.7483873
  39.3352319   7.4363562  81.0079690  38.6583499   6.3240160  80.2356939
  45.4090670   8.1437281  86.9475444  44.5216525   8.4286931  86.7295639
  45.8244659   7.9831044  86.1002721  44.5533883  17.9081955  81.0423464
  45.2569733  18.1131958  81.6581120  43.8296532  18.4758717  81.3072548
  45.3831693  13.6591817  87.1625735  45.3266895  14.1160368  86.3233367
  45.9360036  12.8982501  86.9848577  49.1936499   9.4481548  87.9875854
  48.9373433   9.0478184  88.8184062  48.5689367  10.1625342  87.8625993
  53.5048837  12.1877622  90.4947145  52.9448395  12.2570811  91.2678707
  52.8992340  12.0118606  89.7746642  46.4620580  18.3464485  83.0921924
  47.2966184  17.9145683  82.9099399  46.3004923  18.1746498  84.0198819
  46.1166473  14.8496598  84.4578264  46.0615276  14.6840869  83.5166708
  45.4912528  15.5572631  84.6140453  39.3552162  23.0273597  92.1231339
  38.4047793  23.0275459  92.0095711  39.6584648  22.2806332  91.6067373
  55.0904856  28.8634136  93.1877101  55.7283266  28.7440883  92.4840441
  54.9725698  29.8114980  93.2465053  51.8994562  28.8161564  93.1238626
  51.5613073  28.7002628  92.2359161  52.7684330  28.4152729  93.1039632
  47.7581378  30.6697040  89.1135517  47.1946243  30.5786977  88.3451805
  47.6433773  29.8496945  89.5938009  52.3814345  29.9696415  99.0824831
  52.3702986  29.5749214  98.2105335  52.5434984  29.2362488  99.6758603
  45.3045809  32.1648232  91.9519737  46.0967101  31.8239056  91.5366037
  45.5442460  32.2743207  92.8721891  53.3380936  34.3368008  84.4249982
  52.6868916  34.9222088  84.0383995  54.1325299  34.8674203  84.4845019
  47.2636563  31.4257145  84.8237116  48.0367439  30.8786132  84.6849992
  47.6161962  32.2901394  85.0351577  49.1021606  32.7533527  98.0304015
  48.8111472  33.6579158  97.9150682  49.7378590  32.7950055  98.7448085
  50.0277813  30.1310376  94.6205375  50.6241385  29.9066398  93.9062338
  50.0852784  29.3895121  95.2230823  49.6002841  27.5849811  82.4555566
  49.8528362  27.0631332  81.6939029  48.6627400  27.4215957  82.5582250
  54.6446124  26.5885590  90.2630309  55.4309213  26.1705013  89.9120726
  54.9084828  27.4931682  90.4311958  54.8156201  32.0258440  84.9618966
  54.1802034  32.0993066  85.6739871  54.4853608  32.6152039  84.2838045
  60.0454551  26.5260823  91.1663288  60.7779723  25.9560040  91.4001117
  59.2893907  26.1382423  91.6069793  49.3199130  29.4877917  84.6579941
  49.2035388  28.8122820  85.3261025  49.4301390  29.0010291  83.8412094
  51.6630671  28.9488064  88.3626630  51.2988878  28.4218685  89.0739552
  52.5197787  28.5586533  88.1893116  57.5679972  20.2382397  95.6257896
  57.2363296  21.1077808  95.4019111  56.9725585  19.9218681  96.3051927
  51.3036158  23.9777964  83.3587979  51.4710560  24.8458200  83.7258450
  51.1133327  24.1405246  82.4349268  54.0611491  32.4394943  95.0253809
  53.7612214  33.3419982  94.9169616  53.7162551  32.1727126  95.8774962
  47.5123973  28.8908740  91.0590513  46.5874469  28.7584954  91.2668205
  47.7608386  29.6702959  91.5560456  57.4608635  24.9577483  92.7051246
  56.5525512  24.8892891  92.4110007  57.4096231  25.4349428  93.5333072
  51.2825379  26.4335621  84.3434646  51.1625004  26.8792672  85.1820126
  50.5877967  26.7820939  83.7848184  44.8732784  28.5342013  91.8934303
  45.0025165  28.7876492  92.8073714  44.1930235  29.1269721  91.5738958
  49.0432271  39.2039263  87.9924777  48.9656301  40.1547088  88.0713257
  48.4393914  38.8585136  88.6499703  59.3270281  23.1593921  94.4829120
  58.6844661  23.4526455  93.8368915  58.8225210  23.0446842  95.2882317
  56.9810445  26.9057095  85.1714980  57.8928301  27.1384481  84.9962677
  56.4720092  27.4894139  84.6090058  49.7895873  29.1852582 100.2104111
  50.5310557  29.7237626  99.9338934  49.0832858  29.8118871 100.3675662
  55.2651213  31.3281722  98.8076272  55.6734569  30.8864133  98.0630904
  54.5428474  30.7534350  99.0610465  51.6182283  26.2654329  96.1809829
  52.4643478  26.6893743  96.3244478  51.5580920  25.6087954  96.8748392
  55.5880027  31.8882913  92.5628561  54.9588890  32.0528627  91.8604629
  55.2005689  32.3024523  93.3339525  59.4669259  32.8237351  89.9172925
  58.7820297  33.2036252  89.3669958  59.5513108  33.4332678  90.6504873
  54.7681728  23.9258698  97.8391003  54.5242660  24.6800758  97.3025278
  55.0441658  24.3044045  98.6738250  56.7220191  30.4697310  96.5168268
  56.9337086  31.1129070  95.8402649  56.6749939  29.6359626  96.0490198
  54.3246420  23.0815131  93.4204840  53.4630899  23.3796384  93.7121578
  54.3508854  23.2985529  92.4885873  51.1407989  31.6257321  89.8278646
  51.6046335  31.9045024  89.0383269  50.8764787  30.7240766  89.6451737
  48.0332070  31.1728803  92.7658409  48.6033427  31.6016071  92.1275894
  48.6240182  30.8911387  93.4642595  50.0776875  27.7480474  86.6368211
  50.7800918  28.2001517  87.1042138  49.7457504  27.1064292  87.2648104
  43.8202209  26.0064026  91.9385345  43.0301263  26.2621555  91.4625455
  44.3113456  26.8212364  92.0437385  57.8366019  33.3469265  94.6890626
  58.6583462  32.9449453  94.4073307  57.8328422  33.2437500  95.6406741
  45.7716954  26.3708605  88.8968822  44.9748118  26.4827300  89.4152317
  45.5442547  26.7095258  88.0309712  51.6022622  32.8953309  96.8451336
  51.6667055  33.3573716  97.6809508  50.8933546  32.2650674  96.9733646
  42.1039912  26.2594517  94.3700336  42.3547951  27.1441527  94.6357912
  42.6399460  26.0799118  93.5975427  65.9272012  29.6908014  91.0375597
  65.1735720  29.1215412  90.8819602  66.0619553  29.6570678  91.9846232
  51.3170640  34.5621416  86.7130316  51.1816315  35.4072952  87.1415164
  51.8580452  34.7640694  85.9496250  44.7700037  32.0796854  87.2858242
  45.2824558  32.8740104  87.4363806  45.4222750  31.3823145  87.2191843
  46.5794922  35.1962610  89.3680995  46.7561550  36.1180575  89.1801979
  47.3751755  34.8821030  89.7975375  52.9439116  35.1844983 100.8430659
  52.5002970  34.3981361 100.5251563  53.6056330  35.3724133 100.1774549
  47.7026237  36.7140784  95.3691337  48.2533662  36.5857848  94.5968331
  46.8637713  37.0135673  95.0186230  55.0420354  35.4647783  98.8712060
  55.0238830  36.2856664  98.3792329  55.9640274  35.3401858  99.0962201
  51.4993408  32.9791912  99.7135568  52.0321745  32.2180200  99.4834876
  50.9707489  32.6865564 100.4559723  54.6663103  18.0851978  95.2429210
  54.3227373  18.9753620  95.1668321  55.0342066  17.8953636  94.3798795
  42.7348954  30.4085508  88.0617812  43.5724176  30.8182517  87.8451520
  42.9127222  29.4684951  88.0318006  54.6313386  28.0760589  83.7501645
  54.1160009  28.8465194  83.9890032  54.3590695  27.4025725  84.3734706
  52.2160497  22.9210290  88.8086883  51.3602093  22.5317140  88.6292522
  52.6287449  23.0002251  87.9486669  53.7459644  20.4556633  93.2078443
  53.2424439  20.4186768  92.3946248  54.0390251  21.3649376  93.2675100
  49.9902530  20.5395363  92.2144625  50.8555526  20.3438172  91.8550514
  50.0580039  20.3105715  93.1413982  59.6047660  30.8292944  85.6854819
  58.8277103  30.4904103  85.2409981  60.2839141  30.8345567  85.0109784
  54.4199689  25.9487681  85.5761426  54.1149825  26.2633830  86.4271569
  55.3730131  26.0269101  85.6188759  52.8646121  32.1077905  87.2254380
  52.3367483  31.3730664  86.9127618  52.3633624  32.8852581  86.9794349
  57.8438967  30.3026925  92.3421427  57.1862642  30.9926186  92.4301555
  58.6479366  30.6923357  92.6855413  47.5964849  22.7697571  89.5860992
  48.1708601  22.5472752  88.8534185  48.1835831  22.8386265  90.3389593
  56.6544426  28.6571298  90.3925368  57.1676308  29.2901290  90.8947078
  57.3045650  28.0572493  90.0268728  47.9234436  24.8002032  83.6056877
  47.0871748  25.1376718  83.9266152  47.7839205  24.6651012  82.6684014
  49.8987516  19.6438820  88.3136061  49.2451929  19.3287837  87.6892676
  49.8567991  19.0214560  89.0395884  51.0098721  29.9258115  80.2289353
  50.1025783  29.6947368  80.4280502  51.5069753  29.1295734  80.4163335
  53.9166800  38.6355622  83.1486039  53.2428499  38.9387319  83.7570997
  54.3032622  39.4384702  82.7991496  53.1325257  26.1320753  92.6383709
  52.2147818  26.3535700  92.4805397  53.5485400  26.2067064  91.7795416
  53.9160305  27.5312169  87.7686389  54.6632123  28.0433566  87.4593511
  54.1851894  27.2096222  88.6290783  52.1886955  30.0270710  84.7513343
  51.2798174  29.7429742  84.8485813  52.2182038  30.4469788  83.8916650
  57.4206222  33.6377299  88.5204511  56.9668549  32.7968209  88.5769701
  56.7900189  34.2738698  88.8579291  56.3639142  24.5669285  89.7505178
  55.6261898  24.0546671  90.0815421  56.6165915  24.1269667  88.9388455
  55.8639161  35.4753796  89.4554329  56.1562136  36.0358853  88.7366695
  56.3737782  35.7682357  90.2107488  56.4650769  17.3445537  90.3446948
  56.7709646  16.4842901  90.0572863  57.1903374  17.9363157  90.1445942
  42.7575125  27.7476224  88.7328546  42.5599525  27.1545584  88.0079612
  42.2021789  27.4428434  89.4504484  50.7371849  27.6399330  90.8523139
  50.7920459  26.6873167  90.7765615  49.9263051  27.7958769  91.3364437
  51.8863042  31.5679453  82.0901422  51.4482472  30.8515312  81.6307059
  52.6273483  31.7955568  81.5286513  48.6764209  26.2576390  88.6113518
  47.8632074  26.5570561  89.0178710  49.1723203  25.8632079  89.3288000
  50.8272787  36.2534147  90.5447782  50.7848965  36.4794993  89.6156314
  51.7435485  36.0197522  90.6933583  54.2738420  26.7218214  97.4428411
  54.6287808  26.9489688  98.3022877  54.9210552  27.0536591  96.8205667
  60.0036157  29.8436650  88.1477740  59.8654056  30.0338246  87.2198930
  59.6472376  30.6056033  88.6045792  48.1678283  23.8294746  94.2274753
  48.8077663  23.6883505  93.5297716  47.3355814  23.5429259  93.8513354
  60.0305537  31.9113177  93.1589012  60.4642044  31.8188466  94.0072066
  60.7437118  31.8870678  92.5209028  48.9438587  33.1297176  90.3409745
  49.7379186  32.6347496  90.1392320  48.2330280  32.6015039  89.9777451
  53.7633432  35.5115271  94.6922113  53.8170454  36.0806208  95.4599828
  52.8948213  35.6817157  94.3276150  45.2521351  27.2740258  86.4169498
  44.3218939  27.2124713  86.6339460  45.3478823  26.7516210  85.6206139
  45.1706900  23.7995071  89.0047739  45.4313717  24.7140404  88.8956900
  45.9924072  23.3319513  89.1544352  46.6431825  25.2132828  96.1746564
  47.3154879  25.0050190  95.5259213  45.8161612  25.0154914  95.7351796
  60.8921086  31.9536878  95.6921897  61.0856977  32.8582689  95.9381172
  60.7921705  31.4944297  96.5260482  55.9536195  32.1043621 101.2662778
  55.8021702  31.8754172 100.3492862  55.9440875  33.0614222 101.2794123
  52.7221532  29.6775534  96.2509044  53.6513592  29.8286693  96.0778012
  52.3012562  29.7659554  95.3957691  51.5209863  33.7026198  94.0207582
  51.3820949  33.3344982  94.8933520  50.7324460  34.2173837  93.8491540
  52.1158015  38.8035294  85.3633119  52.2909771  38.3323338  86.1778741
  51.4290803  39.4301061  85.5914379  53.0715078  33.0807801  91.4096420
  52.7364911  33.0408571  92.3054070  52.5719024  32.4152517  90.9366830
  47.0459322  28.4875431  96.9349001  46.9079120  27.7555669  97.5360540
  47.9564246  28.3984331  96.6533189  56.0074270  30.4263835  81.6833479
  55.3903441  29.7010663  81.5866532  55.5390759  31.1873195  81.3400554
  49.6741623  28.1995390  96.4232681  50.3841242  27.5588582  96.3819299
  49.6310931  28.4508285  97.3458861  57.6628402  35.1362743  99.3439260
  57.6040948  34.4521963  98.6769843  58.0647920  35.8781733  98.8919886
  46.6819101  41.9524657  92.1372979  46.9215699  42.5843181  92.8151997
  45.8388297  41.6012697  92.4238338  47.7972816  24.6449259  80.8054784
  46.9202282  24.5238060  80.4417030  48.2730569  23.8535338  80.5533672
  57.6645809  33.1002327  97.5753240  56.7772588  32.7628249  97.6979638
  58.2344360  32.3685358  97.8122005  39.3174956  29.4326419  90.8996291
  40.0045996  29.1188149  90.3117306  39.1623085  30.3367784  90.6263542
  44.1209678  24.3216616  95.3281315  44.0367867  23.7142285  94.5931725
  43.2992385  24.8125634  95.3290811  51.1946962  37.7603780  94.5414483
  51.1217134  38.5658751  95.0533787  50.7524356  37.9595745  93.7162504
  50.9836742  36.9975550  88.0517304  50.2004264  37.5397230  88.1455529
  51.6829487  37.5149529  88.4511545  54.2933392  22.8070179  90.6951510
  54.7902092  22.0540141  90.3752580  53.5220374  22.8434496  90.1294719
  62.1463150  28.5110545  92.3369801  62.1353026  29.3935260  91.9663734
  61.2780529  28.1582095  92.1424338  53.6545646  37.6590614  96.6972641
  54.3673618  38.2938078  96.6248543  53.1635675  37.7554480  95.8812643
  55.3763173  31.5641866  88.2689933  54.4419452  31.6843329  88.0994637
  55.5539841  30.6614333  88.0049943  50.8768361  24.9487562  90.4223194
  50.5066148  24.3958602  91.1104100  51.3727453  24.3445696  89.8698194
  58.7635724  27.4059186  88.8039967  59.2296176  28.2387177  88.7300270
  59.2143225  26.9404167  89.5085226  48.7057559  35.4085057  97.5178212
  49.4067019  36.0421540  97.6707606  48.2352674  35.7499789  96.7573851
  56.8311955  33.7503007  85.8026119  57.1071799  33.6359601  86.7119993
  55.9616454  33.3520492  85.7638292  56.7352387  19.7739773  92.8430869
  55.8215467  20.0043999  93.0113075  57.1645488  19.8578217  93.6944901
  56.5058845  27.9629665  95.3430763  55.8530296  28.2105572  94.6883215
  56.8839225  27.1493803  95.0093240  53.4666019  37.9989358  89.4458933
  53.6488414  37.1811014  89.9086685  54.2899005  38.2157050  89.0083823
  53.8008185  36.9257543  86.7073981  54.3295951  36.4149997  86.0944143
  54.0636404  36.6100073  87.5719514  44.3025278  34.9421412  94.4509315
  44.8878714  34.1965100  94.5837219  44.1050116  35.2525369  95.3345979
  47.1563933  37.9772660  89.4671757  46.4874308  38.4618787  88.9835797
  47.0176802  38.2241880  90.3815136  38.8942932  27.5127012  93.1713758
  38.9327032  26.9790603  93.9650876  38.3883225  26.9862218  92.5524735
  51.2969201  40.0116403  96.0654416  51.8487509  40.1748025  96.8303501
  51.6375395  40.6020841  95.3934440  56.1480076  34.8377661 101.9203070
  56.6919980  35.4507619 101.4258025  55.5666921  35.3957239 102.4370083
  42.5251510  26.2391115  86.2467689  42.8204951  25.3301793  86.1934743
  41.6239546  26.2178854  85.9248692  54.4337589  37.9598379  93.0518098
  54.3088728  37.1588118  92.5429043  55.0916680  38.4544572  92.5632068
  46.0545757  24.3147111  92.2295238  45.3332343  24.9283079  92.0902711
  46.8439013  24.8504876  92.1511884  56.4972497  35.7607399  94.6797648
  55.5502833  35.6412750  94.6075975  56.8455270  34.8729897  94.7623909
  44.2539351  23.9205212  86.3707015  43.9252058  23.0402591  86.1882121
  44.6078722  23.8652881  87.2583404  53.5018930  35.5560115  90.8802000
  53.3543893  34.6276822  91.0609570  54.3272424  35.5780206  90.3959075
  47.3681175  24.2078182  86.7382492  47.7077247  24.7364103  86.0161101
  47.8153295  24.5458588  87.5141059  57.1053052  36.3788674  91.9666873
  58.0299600  36.1731535  91.8291324  56.9368356  36.1305075  92.8756214
  50.0624615  22.5915233  96.1885560  49.7221436  21.7923046  96.5906240
  49.3563622  22.8916944  95.6162394  50.7141087  19.6764545  94.6412883
  51.5367157  19.2025023  94.5191774  50.9579151  20.4555029  95.1411570
  49.3549322  22.7052804  84.9375785  50.0757684  23.0834056  84.4339502
  48.7314626  23.4241680  85.0410763  53.4980445  23.4097953  85.8734117
  53.7144059  24.2922590  85.5722946  53.0174512  23.0184166  85.1439759
  48.2379666  26.3683666  92.4504862  48.0924247  26.6823969  93.3429143
  47.7604870  26.9868566  91.8975761  50.0976049  23.3586214  92.4985752
  50.0837618  22.4627307  92.1618049  50.8148477  23.3656877  93.1324038
  51.9502180  23.7923554  94.5438879  51.6919957  24.7140625  94.5423209
  51.4187220  23.3953988  95.2339343  56.8948368  36.8974341  87.3228964
  57.0685246  36.3320764  86.5702817  57.3877260  37.6975236  87.1408454
  42.7125328  28.9089010  95.3892523  42.1678796  29.6848818  95.5212797
  43.5904678  29.2559815  95.2311645  49.5012945  22.2400594  87.7673322
  49.6228856  21.3117240  87.9664209  49.2114987  22.2539280  86.8551637
  52.3704135  19.9255504  90.9040041  52.3925832  19.9894838  89.9492021
  52.7872194  19.0860013  91.0980548  62.7487760  29.6610764  88.9419264
  63.1918906  28.9118089  88.5438387  61.8714270  29.6520900  88.5592996
  57.8823541  36.2141105  84.4225863  58.5774445  36.8347798  84.6413177
  58.2246691  35.3636457  84.6978240  59.7814964  33.6640811  85.9513193
  60.3066288  34.0028084  85.2262513  59.6937317  32.7287826  85.7676328
  51.4435013  37.5774885  98.0803070  51.7522139  37.3324031  98.9525770
  52.2410495  37.7821523  97.5921940  51.4655625  39.7312794  90.3108447
  51.0260615  39.2389173  91.0041303  52.2163742  39.1885762  90.0700522
  43.9447964  35.9224335  90.3133075  44.7705984  35.6228107  89.9331718
  43.5942016  35.1531958  90.7622863  48.9129497  35.2750803  92.3830748
  48.2909506  34.6121508  92.0832976  49.5834364  35.3011935  91.7004396
  42.1456569  33.8410662  91.2722008  41.3088477  33.4132836  91.0906009
  42.1180214  34.0343105  92.2092799  59.4708870  34.2973715 101.2564391
  58.6804414  34.2797853 100.7168891  59.2342225  34.8362008 102.0113428
  59.5906745  31.1466181  98.5697120  59.6404750  30.9816188  99.5112643
  59.4820668  30.2793440  98.1795001  48.4743004  33.8254727  85.8589209
  48.6231124  34.5090191  85.2055882  49.2809447  33.8059817  86.3738665
  56.8810507  27.1297109  99.8856427  57.7820370  26.9903574  99.5940424
  56.9558482  27.2951564 100.8254604  61.0924942  33.5663123  98.8139141
  60.8009750  33.9293103  99.6502602  60.4797073  32.8530131  98.6352473
  62.2920624  31.1316002  91.3341712  63.1267516  31.5705806  91.4979272
  62.4279753  30.6554656  90.5149957  59.3412130  28.6895737  97.2819199
  59.8166252  28.8823383  96.4738051  58.4177696  28.7454923  97.0362583
  46.2295637  29.8519904  86.8650278  45.9841679  28.9482234  87.0630488
  46.3991551  29.8537055  85.9229756  53.9192347  20.7243581  96.2475033
  54.4374291  21.4604608  95.9221522  53.5647479  21.0307574  97.0821792
  45.4991284  25.5848262  84.3636439  44.8060529  25.6592617  83.7076475
  45.2543036  24.8208606  84.8857956  54.1704941  17.1443863  91.7675930
  54.4506695  16.4767052  92.3936356  54.9555548  17.3372959  91.2550594
  51.9738409  36.3202857  83.3300956  51.4012376  36.9393044  82.8771428
  52.5471203  36.8702219  83.8640878  58.0413799  25.5661497  95.5147505
  58.9931222  25.6659595  95.5359729  57.8717250  24.7739766  96.0245589
  56.0628179  22.6517080  95.7006906  55.4678111  22.9322093  95.0053395
  55.7777875  23.1410981  96.4723647  55.1935669  36.6040007  84.4609538
  56.1266342  36.5385569  84.6642414  55.1058882  37.4396274  84.0024071
  57.8223686  35.9205878  81.4213486  57.7437317  35.5865741  82.3149244
  58.6433353  36.4127646  81.4204958  60.5201877  28.7867617  94.6289805
  60.4878197  27.8483618  94.8149488  61.1302501  28.8651654  93.8955630
  52.3585208  27.6563670  80.6717009  53.3044313  27.5269878  80.7405427
  51.9799453  26.9178332  81.1486437  60.6696365  25.5778660  94.6748088
  60.1535414  24.7937117  94.4878017  61.5536314  25.2497377  94.8394607
  58.3307092  19.3219676  90.6343901  58.1331913  19.0134764  91.5187232
  58.9406798  20.0481315  90.7641830  66.3378427  29.8483624  93.7695841
  67.0681815  29.5868912  94.3303545  65.7285372  29.1112346  93.8097909
  64.4193724  27.9891486  94.3670293  63.6926888  27.8547451  93.7586784
  64.0041011  28.2968315  95.1727011  52.2423900  31.7081416 102.1317666
  53.1626910  31.8860015 102.3257712  52.2073483  30.7637461 101.9797365
  50.5428125  25.5813646  80.6071894  49.6359580  25.2846759  80.6834608
  50.8204106  25.2843464  79.7406180  41.4606065  26.9020010  91.0570940
  41.1408850  26.0485318  90.7645314  40.9139494  27.1168588  91.8128908
  45.2385973  29.6182451  94.7740447  45.4571983  30.5499559  94.7928481
  45.6511747  29.2590425  95.5595251  52.1590191  20.1250536  86.7616135
  51.3490919  19.7797621  87.1371381  52.8474608  19.8158080  87.3503747
  54.0880739  19.2028583  88.3840432  54.6411778  19.6224036  89.0430455
  54.3250825  18.2764331  88.4263388  49.3126910  22.4400582  80.7483873
  50.1746074  22.7655480  81.0079690  49.4977254  21.6532077  80.2356939
  41.3294325  30.5222921  93.0264062  40.6357797  30.1076874  92.5134016
  42.0767316  30.5643458  92.4297481  57.4659546  21.3129108  87.8919096
  56.8858215  21.9713912  87.5097149  57.1995479  20.4906453  87.4806514
  55.9163112  20.7134166  90.0940416  56.4162891  20.8250700  89.2854735
  56.5598720  20.4095219  90.7341225  43.2431068  30.4541175  90.9030077
  43.2201756  30.5528862  89.9511960  43.5531704  31.3006326  91.2247243
  45.9018446  32.5117330  95.0176691  46.8561699  32.4801272  94.9506623
  45.7030969  32.0507954  95.8326917  46.4917828  31.0818446  97.5847489
  47.3110717  31.5762525  97.6082326  46.7654636  30.1650414  97.5565056
  56.2484424  23.4729198  86.9475444  55.3610279  23.7578849  86.7295639
  56.6638413  23.3122962  86.1002721  59.5998960  23.4975719  90.6629784
  60.3759350  23.9872172  90.9354400  58.8747094  23.9233774  91.1201653
  62.0371519  24.2103339  91.7203724  62.6316010  23.9699075  91.0097032
  62.1098103  23.4910469  92.3477261  44.2568675  38.0536950  92.0346889
  44.1223142  37.2937350  91.4684887  43.8400737  38.7777849  91.5675678
  55.3927638  33.2373873  81.0423464  56.0963488  33.4423876  81.6581120
  54.6690286  33.8050635  81.3072548  56.2225448  28.9883734  87.1625735
  56.1660649  29.4452286  86.3233367  56.7753790  28.2274419  86.9848577
  60.0330254  24.7773466  87.9875854  59.7767188  24.3770102  88.8184062
  59.4083122  25.4917260  87.8625993  64.3442592  27.5169539  90.4947145
  63.7842150  27.5862729  91.2678707  63.7386095  27.3410524  89.7746642
  47.4137800  38.9506267  92.2465332  47.2970185  39.8951699  92.1444022
  46.5930247  38.6479828  92.6351131  57.3014335  33.6756402  83.0921924
  58.1359939  33.2437601  82.9099399  57.1398678  33.5038416  84.0198819
  56.9560227  30.1788516  84.4578264  56.9009031  30.0132787  83.5166708
  56.3306282  30.8864548  84.6140453  54.2706134  32.4837427 103.7831826
  55.1397294  32.6578080 103.4218461  53.7912886  33.3031844 103.6607556
  50.2656353  19.6796625  84.0363582  50.2535022  20.6238464  84.1931853
  51.1579774  19.4966770  83.7423043  48.4392315  39.6034528  95.4621260
  49.3419561  39.6358139  95.7787755  48.2129685  38.6734979  95.4767596
  50.1945917  38.3565515  92.1231339  49.2441548  38.3567377  92.0095711
  50.4978403  37.6098250  91.6067373  54.0808472  16.2739401  88.2909519
  53.3140868  15.7197888  88.4366201  54.4919177  16.3461270  89.1523671
  62.7388316  44.1453481  93.1238626  62.4006828  44.0294546  92.2359161
  63.6078085  43.7444647  93.1039632  56.1439564  47.4940149  91.9519737
  56.9360856  47.1530974  91.5366037  56.3836214  47.6035125  92.8721891
  64.1774691  49.6659926  84.4249982  63.5262670  50.2514006  84.0383995
  64.9719054  50.1966120  84.4845019  58.1030318  46.7549063  84.8237116
  58.8761194  46.2078050  84.6849992  58.4555717  47.6193312  85.0351577
  60.4396596  42.9141729  82.4555566  60.6922116  42.3923250  81.6939029
  59.5021155  42.7507874  82.5582250  65.4839879  41.9177507  90.2630309
  66.2702968  41.4996930  89.9120726  65.7478583  42.8223599  90.4311958
  65.6549956  47.3550358  84.9618966  65.0195789  47.4284984  85.6739871
  65.3247362  47.9443956  84.2838045  70.8848306  41.8552740  91.1663288
  71.6173478  41.2851957  91.4001117  70.1287661  41.4674341  91.6069793
  60.1592884  44.8169835  84.6579941  60.0429143  44.1414738  85.3261025
  60.2695144  44.3302209  83.8412094  62.5024425  44.2779982  88.3626630
  62.1382633  43.7510603  89.0739552  63.3591541  43.8878451  88.1893116
  68.4073726  35.5674315  95.6257896  68.0757051  36.4369725  95.4019111
  67.8119339  35.2510599  96.3051927  62.1429912  39.3069882  83.3587979
  62.3104315  40.1750118  83.7258450  61.9527081  39.4697163  82.4349268
  58.3517727  44.2200657  91.0590513  57.4268223  44.0876871  91.2668205
  58.6002140  44.9994877  91.5560456  68.3002389  40.2869401  92.7051246
  67.3919267  40.2184809  92.4110007  68.2489985  40.7641346  93.5333072
  62.1219133  41.7627539  84.3434646  62.0018758  42.2084590  85.1820126
  61.4271722  42.1112857  83.7848184  55.7126538  43.8633931  91.8934303
  55.8418919  44.1168410  92.8073714  55.0323989  44.4561639  91.5738958
  62.3743255  41.7059046 100.6486144  61.5976589  42.2652966 100.6389008
  63.0133818  42.1915829 101.1701014  67.8204199  42.2349012  85.1714980
  68.7322056  42.4676399  84.9962677  67.3113846  42.8186056  84.6090058
  62.4576037  41.5946247  96.1809829  63.3037232  42.0185660  96.3244478
  62.3974675  40.9379871  96.8748392  65.6075482  39.2550615  97.8391003
  65.3636414  40.0092676  97.3025278  65.8835413  39.6335963  98.6738250
  65.1640174  38.4107048  93.4204840  64.3024653  38.7088302  93.7121578
  65.1902609  38.6277447  92.4885873  58.8725825  46.5020720  92.7658409
  59.4427182  46.9307989  92.1275894  59.4633936  46.2203305  93.4642595
  60.9170630  43.0772391  86.6368211  61.6194673  43.5293435  87.1042138
  60.5851258  42.4356210  87.2648104  59.3650991  41.6684148 101.0119421
  58.7349652  42.3500429 101.2454817  59.2587079  41.5567229 100.0672559
  54.6595964  41.3355944  91.9385345  53.8695018  41.5913472  91.4625455
  55.1507211  42.1504282  92.0437385  56.6110709  41.7000523  88.8968822
  55.8141872  41.8119217  89.4152317  56.3836301  42.0387175  88.0309712
  52.9433667  41.5886434  94.3700336  53.1941705  42.4733444  94.6357912
  53.4793215  41.4091036  93.5975427  76.7665766  45.0199931  91.0375597
  76.0129475  44.4507330  90.8819602  76.9013307  44.9862596  91.9846232
  58.6431734  35.9704914 103.3744672  58.2498679  35.4171112 104.0492316
  59.4597874  36.2815492 103.7651189  61.5599695  37.3862793 100.9664928
  62.3009408  37.9869946 100.8869391  61.7917618  36.6440431 100.4082971
  56.7041033  42.5719160  99.2443158  56.5894548  41.6704417  99.5450257
  55.8485551  42.8182857  98.8927974  63.7832871  50.5136900 100.8430659
  63.3396725  49.7273279 100.5251563  64.4450084  50.7016051 100.1774549
  65.8814109  50.7939700  98.8712060  65.8632584  51.6148581  98.3792329
  66.8034029  50.6693775  99.0962201  65.5056858  33.4143896  95.2429210
  65.1621127  34.3045537  95.1668321  65.8735820  33.2245553  94.3798795
  65.4707141  43.4052507  83.7501645  64.9553764  44.1757111  83.9890032
  65.1984449  42.7317643  84.3734706  63.0554252  38.2502208  88.8086883
  62.1995848  37.8609058  88.6292522  63.4681203  38.3294168  87.9486669
  64.5853398  35.7848551  93.2078443  64.0818194  35.7478686  92.3946248
  64.8784005  36.6941294  93.2675100  60.8296284  35.8687281  92.2144625
  61.6949281  35.6730089  91.8550514  60.8973793  35.6397632  93.1413982
  70.4441415  46.1584861  85.6854819  69.6670857  45.8196021  85.2409981
  71.1232896  46.1637485  85.0109784  65.2593444  41.2779599  85.5761426
  64.9543579  41.5925748  86.4271569  66.2123886  41.3561019  85.6188759
  58.4358603  38.0989488  89.5860992  59.0102355  37.8764670  88.8534185
  59.0229586  38.1678183  90.3389593  67.4938180  43.9863215  90.3925368
  68.0070062  44.6193207  90.8947078  68.1439404  43.3864411  90.0268728
  58.7628190  40.1293950  83.6056877  57.9265503  40.4668636  83.9266152
  58.6232960  39.9942929  82.6684014  60.7381271  34.9730737  88.3136061
  60.0845683  34.6579755  87.6892676  60.6961745  34.3506478  89.0395884
  61.8492476  45.2550032  80.2289353  60.9419537  45.0239286  80.4280502
  62.3463508  44.4587652  80.4163335  64.7560555  53.9647540  83.1486039
  64.0822253  54.2679236  83.7570997  65.1426377  54.7676620  82.7991496
  63.9719011  41.4612671  92.6383709  63.0541573  41.6827618  92.4805397
  64.3879155  41.5358981  91.7795416  64.7554059  42.8604087  87.7686389
  65.5025878  43.3725484  87.4593511  65.0245649  42.5388139  88.6290783
  63.0280709  45.3562627  84.7513343  62.1191928  45.0721660  84.8485813
  63.0575793  45.7761706  83.8916650  67.2032896  39.8961203  89.7505178
  66.4655653  39.3838589  90.0815421  67.4559670  39.4561584  88.9388455
  67.3044523  32.6737455  90.3446948  67.6103400  31.8134818  90.0572863
  68.0297128  33.2655075  90.1445942  53.5968880  43.0768141  88.7328546
  53.3993279  42.4837502  88.0079612  53.0415544  42.7720352  89.4504484
  61.5765603  42.9691248  90.8523139  61.6314213  42.0165084  90.7765615
  60.7656805  43.1250687  91.3364437  62.7256797  46.8971371  82.0901422
  62.2876227  46.1807230  81.6307059  63.4667238  47.1247486  81.5286513
  59.5157963  41.5868308  88.6113518  58.7025829  41.8862478  89.0178710
  60.0116957  41.1923996  89.3288000  70.8429912  45.1728568  88.1477740
  70.7047810  45.3630164  87.2198930  70.4866131  45.9347951  88.6045792
  59.0072038  39.1586663  94.2274753  59.6471417  39.0175422  93.5297716
  58.1749568  38.8721177  93.8513354  56.0915105  42.6032175  86.4169498
  55.1612693  42.5416631  86.6339460  56.1872577  42.0808128  85.6206139
  56.0100654  39.1286988  89.0047739  56.2707472  40.0432321  88.8956900
  56.8317827  38.6611431  89.1544352  57.4825580  40.5424745  96.1746564
  58.1548633  40.3342107  95.5259213  56.6555366  40.3446831  95.7351796
  71.7314841  47.2828796  95.6921897  71.9250731  48.1874606  95.9381172
  71.6315459  46.8236215  96.5260482  63.3851152  37.1686686  98.1912225
  62.7379067  37.8676636  98.0976701  64.1552167  37.6022830  98.5588473
  66.7929950  47.4335538 101.2662778  66.6415456  47.2046090 100.3492862
  66.7834629  48.3906140 101.2794123  57.8853077  43.8167348  96.9349001
  57.7472875  43.0847587  97.5360540  58.7958000  43.7276248  96.6533189
  66.8468025  45.7555753  81.6833479  66.2297195  45.0302581  81.5866532
  66.3784513  46.5165113  81.3400554  68.5022156  50.4654661  99.3439260
  68.4434702  49.7813881  98.6769843  68.9041675  51.2073651  98.8919886
  59.2264312  40.5152526  98.2428320  58.6901669  40.0643264  98.8949916
  58.6381020  40.6498434  97.4998784  58.6366571  39.9741177  80.8054784
  57.7596037  39.8529978  80.4417030  59.1124324  39.1827255  80.5533672
  50.1568711  44.7618337  90.8996291  50.8439750  44.4480067  90.3117306
  50.0016839  45.6659701  90.6263542  54.9603433  39.6508533  95.3281315
  54.8761622  39.0434203  94.5931725  54.1386139  40.1417552  95.3290811
  65.1327147  38.1362097  90.6951510  65.6295846  37.3832059  90.3752580
  64.3614128  38.1726413  90.1294719  72.9856904  43.8402462  92.3369801
  72.9746780  44.7227178  91.9663734  72.1174283  43.4874013  92.1424338
  64.4939400  52.9882531  96.6972641  65.2067373  53.6229996  96.6248543
  64.0029429  53.0846397  95.8812643  66.2156927  46.8933784  88.2689933
  65.2813206  47.0135246  88.0994637  66.3933596  45.9906251  88.0049943
  61.7162115  40.2779480  90.4223194  61.3459903  39.7250520  91.1104100
  62.2121208  39.6737613  89.8698194  69.6029479  42.7351103  88.8039967
  70.0689931  43.5679095  88.7300270  70.0536979  42.2696085  89.5085226
  67.6705710  49.0794925  85.8026119  67.9465554  48.9651519  86.7119993
  66.8010209  48.6812409  85.7638292  67.5746141  35.1031690  92.8430869
  66.6609221  35.3335917  93.0113075  68.0039243  35.1870134  93.6944901
  64.3059774  53.3281275  89.4458933  64.4882168  52.5102931  89.9086685
  65.1292760  53.5448968  89.0083823  64.6401939  52.2549461  86.7073981
  65.1689706  51.7441915  86.0944143  64.9030159  51.9391991  87.5719514
  55.1419032  50.2713330  94.4509315  55.7272469  49.5257018  94.5837219
  54.9443870  50.5817287  95.3345979  49.7336687  42.8418930  93.1713758
  49.7720786  42.3082521  93.9650876  49.2276980  42.3154136  92.5524735
  62.1362956  55.3408321  96.0654416  62.6881264  55.5039942  96.8303501
  62.4769149  55.9312759  95.3934440  57.1127449  37.6883471  96.6676300
  57.1768776  38.5498301  96.2553698  57.0494569  37.0757472  95.9348659
  56.5879722  39.7606603 100.3149335  57.2151760  39.3783680 100.9286859
  55.7307640  39.5420805 100.6805027  66.9873830  50.1669578 101.9203070
  67.5313734  50.7799537 101.4258025  66.4060675  50.7249157 102.4370083
  53.3645264  41.5683032  86.2467689  53.6598705  40.6593711  86.1934743
  52.4633300  41.5470772  85.9248692  56.8939511  39.6439029  92.2295238
  56.1726097  40.2574996  92.0902711  57.6832767  40.1796794  92.1511884
  59.6965825  36.9793455  98.5035890  60.2200227  37.2255752  99.2662199
  59.4778158  37.8113490  98.0839027  55.0933106  39.2497130  86.3707015
  54.7645812  38.3694509  86.1882121  55.4472477  39.1944799  87.2583404
  58.2074929  39.5370100  86.7382492  58.5471002  40.0656021  86.0161101
  58.6547050  39.8750506  87.5141059  60.9018370  37.9207150  96.1885560
  60.5615190  37.1214963  96.5906240  60.1957376  38.2208861  95.6162394
  61.5534842  35.0056463  94.6412883  62.3760911  34.5316941  94.5191774
  61.7972905  35.7846947  95.1411570  60.1943076  38.0344721  84.9375785
  60.9151439  38.4125974  84.4339502  59.5708380  38.7533598  85.0410763
  64.3374199  38.7389870  85.8734117  64.5537814  39.6214508  85.5722946
  63.8568266  38.3476084  85.1439759  59.0773421  41.6975583  92.4504862
  58.9318001  42.0115887  93.3429143  58.5998624  42.3160484  91.8975761
  60.9369803  38.6878131  92.4985752  60.9231372  37.7919225  92.1618049
  61.6542231  38.6948795  93.1324038  62.7895934  39.1215472  94.5438879
  62.5313712  40.0432542  94.5423209  62.2580974  38.7245906  95.2339343
  67.7342123  52.2266259  87.3228964  67.9079000  51.6612681  86.5702817
  68.2271014  53.0267154  87.1408454  53.5519083  44.2380928  95.3892523
  53.0072551  45.0140736  95.5212797  54.4298433  44.5851732  95.2311645
  60.3406699  37.5692512  87.7673322  60.4622611  36.6409158  87.9664209
  60.0508742  37.5831198  86.8551637  63.2097890  35.2547422  90.9040041
  63.2319587  35.3186755  89.9492021  63.6265949  34.4151931  91.0980548
  73.5881514  44.9902682  88.9419264  74.0312660  44.2410007  88.5438387
  72.7108024  44.9812818  88.5592996  68.7217295  51.5433023  84.4225863
  69.4168200  52.1639716  84.6413177  69.0640445  50.6928374  84.6978240
  54.3385105  43.3650824  98.2822680  53.5966841  43.5133459  98.8687310
  54.0177849  43.6259090  97.4189429  70.6208718  48.9932729  85.9513193
  71.1460043  49.3320001  85.2262513  70.5331071  48.0579744  85.7676328
  62.2828767  52.9066802  98.0803070  62.5915894  52.6615949  98.9525770
  63.0804249  53.1113441  97.5921940  59.8247779  39.0824509 101.9763254
  59.8735934  39.9586632 101.5941024  60.3670293  38.5401902 101.4034897
  70.3102625  49.6265632 101.2564391  69.5198168  49.6089771 100.7168891
  70.0735979  50.1653926 102.0113428  70.4300500  46.4758099  98.5697120
  70.4798505  46.3108106  99.5112643  70.3214423  45.6085358  98.1795001
  62.0547067  39.8355881  98.7309613  61.1850377  40.1289448  98.4592201
  62.2906548  40.4196326  99.4516877  71.9318696  48.8955040  98.8139141
  71.6403505  49.2585021  99.6502602  71.3190828  48.1822048  98.6352473
  73.1314379  46.4607920  91.3341712  73.9661270  46.8997724  91.4979272
  73.2673508  45.9846573  90.5149957  70.1805885  44.0187655  97.2819199
  70.6560006  44.2115301  96.4738051  69.2571450  44.0746841  97.0362583
  64.7586101  36.0535498  96.2475033  65.2768045  36.7896525  95.9221522
  64.4041234  36.3599492  97.0821792  56.3385039  40.9140180  84.3636439
  55.6454284  40.9884535  83.7076475  56.0936791  40.1500523  84.8857956
  65.0098695  32.4735781  91.7675930  65.2900449  31.8058970  92.3936356
  65.7949302  32.6664877  91.2550594  68.8807554  40.8953415  95.5147505
  69.8324977  40.9951513  95.5359729  68.7111004  40.1031683  96.0245589
  66.9021933  37.9808998  95.7006906  66.3071865  38.2614011  95.0053395
  66.6171630  38.4702899  96.4723647  66.0329424  51.9331925  84.4609538
  66.9660097  51.8677487  84.6642414  65.9452636  52.7688192  84.0024071
  68.6617440  51.2497795  81.4213486  68.5831072  50.9157659  82.3149244
  69.4827107  51.7419563  81.4204958  71.3595631  44.1159535  94.6289805
  71.3271952  43.1775535  94.8149488  71.9696255  44.1943571  93.8955630
  63.1978962  42.9855588  80.6717009  64.1438067  42.8561796  80.7405427
  62.8193207  42.2470249  81.1486437  71.5090120  40.9070578  94.6748088
  70.9929169  40.1229035  94.4878017  72.3930068  40.5789295  94.8394607
  69.1700847  34.6511594  90.6343901  68.9725668  34.3426682  91.5187232
  69.7800552  35.3773233  90.7641830  77.1772181  45.1775541  93.7695841
  77.9075570  44.9160830  94.3303545  76.5679127  44.4404263  93.8097909
  75.2587478  43.3183404  94.3670293  74.5320642  43.1839369  93.7586784
  74.8434765  43.6260233  95.1727011  63.0817655  47.0373334 102.1317666
  64.0020664  47.2151933 102.3257712  63.0467238  46.0929379 101.9797365
  61.3821879  40.9105564  80.6071894  60.4753335  40.6138677  80.6834608
  61.6597860  40.6135382  79.7406180  52.2999820  42.2311927  91.0570940
  51.9802604  41.3777236  90.7645314  51.7533248  42.4460506  91.8128908
  56.0779727  44.9474368  94.7740447  56.2965737  45.8791476  94.7928481
  56.4905501  44.5882343  95.5595251  62.9983945  35.4542454  86.7616135
  62.1884673  35.1089539  87.1371381  63.6868362  35.1449997  87.3503747
  64.9274493  34.5320501  88.3840432  65.4805532  34.9515954  89.0430455
  65.1644580  33.6056249  88.4263388  60.9507593  40.5207574 104.1643196
  60.8504320  41.4701931 104.0955287  60.7329135  40.1925813 103.2919266
  60.1520664  37.7692499  80.7483873  61.0139828  38.0947398  81.0079690
  60.3371008  36.9823995  80.2356939  52.1688080  45.8514839  93.0264062
  51.4751551  45.4368792  92.5134016  52.9161071  45.8935375  92.4297481
  68.3053301  36.6421026  87.8919096  67.7251970  37.3005830  87.5097149
  68.0389233  35.8198370  87.4806514  66.7556867  36.0426083  90.0940416
  67.2556645  36.1542618  89.2854735  67.3992475  35.7387136  90.7341225
  60.8138863  43.9504713 102.9808257  60.3305944  44.7505073 103.1872146
  60.8999802  43.9612658 102.0275701  54.0824822  45.7833093  90.9030077
  54.0595510  45.8820780  89.9511960  54.3925459  46.6298243  91.2247243
  56.7412200  47.8409248  95.0176691  57.6955454  47.8093190  94.9506623
  56.5424724  47.3799871  95.8326917  57.3311582  46.4110364  97.5847489
  58.1504471  46.9054442  97.6082326  57.6048390  45.4942332  97.5565056
  67.0878179  38.8021116  86.9475444  66.2004034  39.0870767  86.7295639
  67.5032168  38.6414879  86.1002721  70.4392715  38.8267637  90.6629784
  71.2153105  39.3164089  90.9354400  69.7140849  39.2525691  91.1201653
  72.8765273  39.5395256  91.7203724  73.4709764  39.2990992  91.0097032
  72.9491857  38.8202387  92.3477261  66.2321392  48.5665791  81.0423464
  66.9357242  48.7715793  81.6581120  65.5084041  49.1342553  81.3072548
  67.0619202  44.3175652  87.1625735  67.0054404  44.7744203  86.3233367
  67.6147545  43.5566337  86.9848577  70.8724008  40.1065384  87.9875854
  70.6160942  39.7062020  88.8184062  70.2476876  40.8209178  87.8625993
  75.1836346  42.8461457  90.4947145  74.6235904  42.9154646  91.2678707
  74.5779849  42.6702442  89.7746642  68.1408089  49.0048320  83.0921924
  68.9753693  48.5729518  82.9099399  67.9792432  48.8330334  84.0198819
  67.7953982  45.5080433  84.4578264  67.7402785  45.3424705  83.5166708
  67.1700037  46.2156466  84.6140453  52.5846497  40.7448498  98.2839686
  53.2305360  40.2347452  98.7726911  52.3763648  41.4817179  98.8583111
  65.1099889  47.8129345 103.7831826  65.9791048  47.9869997 103.4218461
  64.6306640  48.6323762 103.6607556  61.1050107  35.0088542  84.0363582
  61.0928777  35.9530382  84.1931853  61.9973529  34.8258688  83.7423043
  64.9202227  31.6031319  88.2909519  64.1534622  31.0489806  88.4366201
  65.3312932  31.6753188  89.1523671  56.9243988  37.8916115 102.3814700
  57.7875449  37.5352920 102.5918025  56.3509398  37.5530009 103.0690104
  76.7692365  59.5217971  93.1877101  77.4070774  59.4024718  92.4840441
  76.6513207  60.4698815  93.2465053  73.5782071  59.4745399  93.1238626
  73.2400582  59.3586464  92.2359161  74.4471839  59.0736564  93.1039632
  69.4368887  61.3280876  89.1135517  68.8733752  61.2370812  88.3451805
  69.3221282  60.5080780  89.5938009  74.0601854  60.6280251  99.0824831
  74.0490495  60.2333049  98.2105335  74.2222493  59.8946323  99.6758603
  66.9833318  62.8232067  91.9519737  67.7754610  62.4822892  91.5366037
  67.2229969  62.9327042  92.8721891  75.0168445  64.9951843  84.4249982
  74.3656425  65.5805924  84.0383995  75.8112808  65.5258038  84.4845019
  68.9424072  62.0840980  84.8237116  69.7154948  61.5369967  84.6849992
  69.2949471  62.9485230  85.0351577  70.7809115  63.4117363  98.0304015
  70.4898981  64.3162994  97.9150682  71.4166099  63.4533890  98.7448085
  71.7065322  60.7894211  94.6205375  72.3028894  60.5650234  93.9062338
  71.7640293  60.0478957  95.2230823  71.2790350  58.2433647  82.4555566
  71.5315871  57.7215168  81.6939029  70.3414909  58.0799792  82.5582250
  76.3233633  57.2469425  90.2630309  77.1096722  56.8288848  89.9120726
  76.5872337  58.1515517  90.4311958  76.4943710  62.6842275  84.9618966
  75.8589543  62.7576902  85.6739871  76.1641117  63.2735874  84.2838045
  81.7242060  57.1844658  91.1663288  82.4567232  56.6143875  91.4001117
  80.9681416  56.7966259  91.6069793  70.9986639  60.1461752  84.6579941
  70.8822897  59.4706656  85.3261025  71.1088899  59.6594126  83.8412094
  73.3418180  59.6071900  88.3626630  72.9776387  59.0802521  89.0739552
  74.1985296  59.2170369  88.1893116  79.2467480  50.8966232  95.6257896
  78.9150805  51.7661643  95.4019111  78.6513094  50.5802516  96.3051927
  72.9823667  54.6361799  83.3587979  73.1498069  55.5042036  83.7258450
  72.7920836  54.7989081  82.4349268  75.7399000  63.0978778  95.0253809
  75.4399723  64.0003817  94.9169616  75.3950060  62.8310961  95.8774962
  69.1911482  59.5492575  91.0590513  68.2661978  59.4168789  91.2668205
  69.4395895  60.3286794  91.5560456  79.1396144  55.6161318  92.7051246
  78.2313021  55.5476727  92.4110007  79.0883740  56.0933263  93.5333072
  72.9612888  57.0919457  84.3434646  72.8412513  57.5376508  85.1820126
  72.2665476  57.4404774  83.7848184  66.5520293  59.1925849  91.8934303
  66.6812674  59.4460327  92.8073714  65.8717744  59.7853557  91.5738958
  70.7219780  69.8623099  87.9924777  70.6443810  70.8130924  88.0713257
  70.1181423  69.5168971  88.6499703  73.2137010  57.0350964 100.6486144
  72.4370344  57.5944884 100.6389008  73.8527573  57.5207747 101.1701014
  81.0057790  53.8177757  94.4829120  80.3632170  54.1110290  93.8368915
  80.5012719  53.7030677  95.2882317  78.6597954  57.5640930  85.1714980
  79.5715810  57.7968317  84.9962677  78.1507601  58.1477974  84.6090058
  71.4683382  59.8436417 100.2104111  72.2098066  60.3821461  99.9338934
  70.7620367  60.4702706 100.3675662  76.9438722  61.9865558  98.8076272
  77.3522078  61.5447968  98.0630904  76.2215983  61.4118185  99.0610465
  73.2969792  56.9238165  96.1809829  74.1430987  57.3477578  96.3244478
  73.2368429  56.2671789  96.8748392  77.2667536  62.5466748  92.5628561
  76.6376399  62.7112463  91.8604629  76.8793198  62.9608358  93.3339525
  81.1456768  63.4821186  89.9172925  80.4607806  63.8620088  89.3669958
  81.2300617  64.0916513  90.6504873  76.4469237  54.5842533  97.8391003
  76.2030169  55.3384593  97.3025278  76.7229167  54.9627881  98.6738250
  78.4007700  61.1281145  96.5168268  78.6124595  61.7712905  95.8402649
  78.3537448  60.2943462  96.0490198  76.0033929  53.7398966  93.4204840
  75.1418408  54.0380219  93.7121578  76.0296363  53.9569365  92.4885873
  72.8195498  62.2841156  89.8278646  73.2833844  62.5628859  89.0383269
  72.5552296  61.3824601  89.6451737  69.7119579  61.8312638  92.7658409
  70.2820936  62.2599906  92.1275894  70.3027691  61.5495223  93.4642595
  71.7564384  58.4064309  86.6368211  72.4588427  58.8585353  87.1042138
  71.4245013  57.7648128  87.2648104  70.2044746  56.9976065 101.0119421
  69.5743406  57.6792346 101.2454817  70.0980834  56.8859147 100.0672559
  65.4989718  56.6647862  91.9385345  64.7088772  56.9205390  91.4625455
  65.9900965  57.4796199  92.0437385  79.5153528  64.0053101  94.6890626
  80.3370971  63.6033288  94.4073307  79.5115931  63.9021335  95.6406741
  67.4504463  57.0292441  88.8968822  66.6535627  57.1411135  89.4152317
  67.2230056  57.3679093  88.0309712  73.2810131  63.5537144  96.8451336
  73.3454564  64.0157551  97.6809508  72.5721055  62.9234509  96.9733646
  63.7827421  56.9178352  94.3700336  64.0335459  57.8025362  94.6357912
  64.3186969  56.7382953  93.5975427  87.6059521  60.3491849  91.0375597
  86.8523229  59.7799247  90.8819602  87.7407062  60.3154514  91.9846232
  72.9958149  65.2205251  86.7130316  72.8603824  66.0656787  87.1415164
  73.5367961  65.4224529  85.9496250  69.4825488  51.2996831 103.3744672
  69.0892434  50.7463030 104.0492316  70.2991629  51.6107410 103.7651189
  66.4487546  62.7380690  87.2858242  66.9612067  63.5323940  87.4363806
  67.1010259  62.0406980  87.2191843  68.2582431  65.8546446  89.3680995
  68.4349059  66.7764410  89.1801979  69.0539264  65.5404865  89.7975375
  72.3993449  52.7154710 100.9664928  73.1403163  53.3161864 100.8869391
  72.6311372  51.9732348 100.4082971  67.5434787  57.9011078  99.2443158
  67.4288303  56.9996335  99.5450257  66.6879305  58.1474774  98.8927974
  69.3813746  67.3724620  95.3691337  69.9321171  67.2441683  94.5968331
  68.5425222  67.6719509  95.0186230  76.3450612  48.7435813  95.2429210
  76.0014882  49.6337455  95.1668321  76.7129575  48.5537471  94.3798795
  64.4136463  61.0669344  88.0617812  65.2511685  61.4766352  87.8451520
  64.5914731  60.1268786  88.0318006  76.3100895  58.7344424  83.7501645
  75.7947518  59.5049029  83.9890032  76.0378203  58.0609561  84.3734706
  73.8948006  53.5794125  88.8086883  73.0389602  53.1900976  88.6292522
  74.3074958  53.6586086  87.9486669  75.4247153  51.1140469  93.2078443
  74.9211948  51.0770604  92.3946248  75.7177760  52.0233211  93.2675100
  71.6690039  51.1979198  92.2144625  72.5343035  51.0022007  91.8550514
  71.7367547  50.9689550  93.1413982  81.2835169  61.4876779  85.6854819
  80.5064612  61.1487939  85.2409981  81.9626650  61.4929402  85.0109784
  76.0987198  56.6071517  85.5761426  75.7937334  56.9217666  86.4271569
  77.0517640  56.6852936  85.6188759  74.5433630  62.7661740  87.2254380
  74.0154992  62.0314499  86.9127618  74.0421133  63.5436416  86.9794349
  79.5226476  60.9610760  92.3421427  78.8650151  61.6510022  92.4301555
  80.3266875  61.3507192  92.6855413  69.2752358  53.4281406  89.5860992
  69.8496110  53.2056588  88.8534185  69.8623340  53.4970101  90.3389593
  78.3331935  59.3155133  90.3925368  78.8463817  59.9485125  90.8947078
  78.9833159  58.7156329  90.0268728  69.6021945  55.4585867  83.6056877
  68.7659257  55.7960554  83.9266152  69.4626714  55.3234847  82.6684014
  71.5775025  50.3022655  88.3136061  70.9239438  49.9871672  87.6892676
  71.5355500  49.6798396  89.0395884  72.6886230  60.5841950  80.2289353
  71.7813292  60.3531204  80.4280502  73.1857262  59.7879569  80.4163335
  75.5954309  69.2939457  83.1486039  74.9216008  69.5971154  83.7570997
  75.9820131  70.0968538  82.7991496  74.8112766  56.7904589  92.6383709
  73.8935327  57.0119536  92.4805397  75.2272909  56.8650899  91.7795416
  75.5947813  58.1896004  87.7686389  76.3419632  58.7017401  87.4593511
  75.8639403  57.8680057  88.6290783  73.8674464  60.6854545  84.7513343
  72.9585683  60.4013578  84.8485813  73.8969547  61.1053624  83.8916650
  79.0993731  64.2961135  88.5204511  78.6456058  63.4552044  88.5769701
  78.4687698  64.9322533  88.8579291  78.0426651  55.2253121  89.7505178
  77.3049407  54.7130507  90.0815421  78.2953424  54.7853502  88.9388455
  77.5426670  66.1337631  89.4554329  77.8349645  66.6942688  88.7366695
  78.0525291  66.4266192  90.2107488  78.1438278  48.0029373  90.3446948
  78.4497155  47.1426736  90.0572863  78.8690883  48.5946993  90.1445942
  64.4362634  58.4060059  88.7328546  64.2387034  57.8129420  88.0079612
  63.8809298  58.1012269  89.4504484  72.4159358  58.2983166  90.8523139
  72.4707967  57.3457002  90.7765615  71.6050560  58.4542605  91.3364437
  73.5650551  62.2263289  82.0901422  73.1269981  61.5099148  81.6307059
  74.3060992  62.4539403  81.5286513  70.3551718  56.9160225  88.6113518
  69.5419583  57.2154396  89.0178710  70.8510712  56.5215914  89.3288000
  72.5060296  66.9117982  90.5447782  72.4636474  67.1378829  89.6156314
  73.4222994  66.6781357  90.6933583  75.9525929  57.3802050  97.4428411
  76.3075317  57.6073523  98.3022877  76.5998061  57.7120427  96.8205667
  81.6823666  60.5020486  88.1477740  81.5441565  60.6922082  87.2198930
  81.3259885  61.2639869  88.6045792  69.8465792  54.4878581  94.2274753
  70.4865172  54.3467340  93.5297716  69.0143323  54.2013094  93.8513354
  81.7093046  62.5697013  93.1589012  82.1429553  62.4772302  94.0072066
  82.4224627  62.5454513  92.5209028  70.6226096  63.7881011  90.3409745
  71.4166695  63.2931331  90.1392320  69.9117789  63.2598874  89.9777451
  75.4420941  66.1699107  94.6922113  75.4957963  66.7390043  95.4599828
  74.5735722  66.3400992  94.3276150  66.9308860  57.9324093  86.4169498
  66.0006448  57.8708549  86.6339460  67.0266332  57.4100046  85.6206139
  66.8494409  54.4578906  89.0047739  67.1101226  55.3724239  88.8956900
  67.6711581  53.9903348  89.1544352  68.3219334  55.8716663  96.1746564
  68.9942388  55.6634025  95.5259213  67.4949121  55.6738749  95.7351796
  82.5708595  62.6120713  95.6921897  82.7644486  63.5166524  95.9381172
  82.4709214  62.1528132  96.5260482  74.2244906  52.4978604  98.1912225
  73.5772821  53.1968554  98.0976701  74.9945922  52.9314748  98.5588473
  74.4009041  60.3359369  96.2509044  75.3301101  60.4870528  96.0778012
  73.9800071  60.4243390  95.3957691  73.1997372  64.3610033  94.0207582
  73.0608458  63.9928818  94.8933520  72.4111969  64.8757673  93.8491540
  73.7945524  69.4619130  85.3633119  73.9697280  68.9907173  86.1778741
  73.1078312  70.0884896  85.5914379  74.7502587  63.7391636  91.4096420
  74.4152420  63.6992406  92.3054070  74.2506533  63.0736352  90.9366830
  68.7246831  59.1459266  96.9349001  68.5866629  58.4139505  97.5360540
  69.6351755  59.0568166  96.6533189  77.6861779  61.0847670  81.6833479
  77.0690950  60.3594498  81.5866532  77.2178268  61.8457031  81.3400554
  71.3529132  58.8579225  96.4232681  72.0628751  58.2172418  96.3819299
  71.3098440  59.1092120  97.3458861  70.0658066  55.8444443  98.2428320
  69.5295423  55.3935182  98.8949916  69.4774774  55.9790352  97.4998784
  68.3606610  72.6108493  92.1372979  68.6003208  73.2427017  92.8151997
  67.5175806  72.2596533  92.4238338  69.4760325  55.3033095  80.8054784
  68.5989791  55.1821895  80.4417030  69.9518078  54.5119173  80.5533672
  60.9962465  60.0910254  90.8996291  61.6833505  59.7771984  90.3117306
  60.8410594  60.9951619  90.6263542  65.7997187  54.9800451  95.3281315
  65.7155376  54.3726120  94.5931725  64.9779894  55.4709469  95.3290811
  72.8734471  68.4187615  94.5414483  72.8004643  69.2242586  95.0533787
  72.4311865  68.6179581  93.7162504  72.6624251  67.6559385  88.0517304
  71.8791773  68.1981065  88.1455529  73.3616996  68.1733365  88.4511545
  75.9720901  53.4654014  90.6951510  76.4689601  52.7123977  90.3752580
  75.2007883  53.5018331  90.1294719  83.8250659  59.1694380  92.3369801
  83.8140535  60.0519095  91.9663734  82.9568038  58.8165931  92.1424338
  77.0550682  62.2225702  88.2689933  76.1206961  62.3427164  88.0994637
  77.2327350  61.3198168  88.0049943  72.5555870  55.6071397  90.4223194
  72.1853657  55.0542438  91.1104100  73.0514962  55.0029531  89.8698194
  80.4423233  58.0643021  88.8039967  80.9083685  58.8971013  88.7300270
  80.8930734  57.5988003  89.5085226  70.3845068  66.0668892  97.5178212
  71.0854528  66.7005375  97.6707606  69.9140183  66.4083624  96.7573851
  78.5099464  64.4086842  85.8026119  78.7859308  64.2943437  86.7119993
  77.6403963  64.0104327  85.7638292  78.4139896  50.4323608  92.8430869
  77.5002976  50.6627835  93.0113075  78.8432997  50.5162052  93.6944901
  78.1846354  58.6213500  95.3430763  77.5317805  58.8689407  94.6883215
  78.5626734  57.8077638  95.0093240  75.1453528  68.6573193  89.4458933
  75.3275923  67.8394849  89.9086685  75.9686514  68.8740885  89.0083823
  75.4795694  67.5841378  86.7073981  76.0083460  67.0733833  86.0944143
  75.7423913  67.2683908  87.5719514  65.9812787  65.6005247  94.4509315
  66.5666223  64.8548935  94.5837219  65.7837625  65.9109204  95.3345979
  68.8351442  68.6356495  89.4671757  68.1661817  69.1202623  88.9835797
  68.6964311  68.8825715  90.3815136  67.9521204  53.0175388  96.6676300
  68.0162530  53.8790219  96.2553698  67.8888324  52.4049390  95.9348659
  67.4273476  55.0898521 100.3149335  68.0545515  54.7075598 100.9286859
  66.5701395  54.8712723 100.6805027  64.2039019  56.8974950  86.2467689
  64.4992460  55.9885628  86.1934743  63.3027055  56.8762689  85.9248692
  76.1125098  68.6182214  93.0518098  75.9876237  67.8171954  92.5429043
  76.7704189  69.1128407  92.5632068  67.7333266  54.9730946  92.2295238
  67.0119852  55.5866914  92.0902711  68.5226522  55.5088711  92.1511884
  78.1760006  66.4191234  94.6797648  77.2290342  66.2996585  94.6075975
  78.5242779  65.5313732  94.7623909  70.5359579  52.3085373  98.5035890
  71.0593981  52.5547669  99.2662199  70.3171913  53.1405408  98.0839027
  65.9326860  54.5789048  86.3707015  65.6039567  53.6986426  86.1882121
  66.2866231  54.5236716  87.2583404  75.1806439  66.2143950  90.8802000
  75.0331402  65.2860658  91.0609570  76.0059933  66.2364041  90.3959075
  69.0468684  54.8662017  86.7382492  69.3864756  55.3947939  86.0161101
  69.4940804  55.2042423  87.5141059  78.7840561  67.0372509  91.9666873
  79.7087109  66.8315370  91.8291324  78.6155865  66.7888910  92.8756214
  71.7412124  53.2499068  96.1885560  71.4008945  52.4506881  96.5906240
  71.0351131  53.5500779  95.6162394  72.3928596  50.3348380  94.6412883
  73.2154666  49.8608859  94.5191774  72.6366660  51.1138864  95.1411570
  71.0336831  53.3636639  84.9375785  71.7545193  53.7417892  84.4339502
  70.4102135  54.0825516  85.0410763  75.1767954  54.0681788  85.8734117
  75.3931568  54.9506426  85.5722946  74.6962021  53.6768001  85.1439759
  69.9167175  57.0267501  92.4504862  69.7711756  57.3407804  93.3429143
  69.4392379  57.6452401  91.8975761  71.7763558  54.0170049  92.4985752
  71.7625127  53.1211142  92.1618049  72.4935986  54.0240713  93.1324038
  73.6289689  54.4507389  94.5438879  73.3707466  55.3724460  94.5423209
  73.0974729  54.0537824  95.2339343  78.5735877  67.5558176  87.3228964
  78.7472755  66.9904599  86.5702817  79.0664769  68.3559071  87.1408454
  64.3912837  59.5672846  95.3892523  63.8466305  60.3432653  95.5212797
  65.2692187  59.9143650  95.2311645  71.1800454  52.8984429  87.7673322
  71.3016365  51.9701076  87.9664209  70.8902496  52.9123115  86.8551637
  74.0491644  50.5839340  90.9040041  74.0713341  50.6478673  89.9492021
  74.4659703  49.7443848  91.0980548  84.4275269  60.3194599  88.9419264
  84.8706415  59.5701925  88.5438387  83.5501779  60.3104736  88.5592996
  79.5611050  66.8724941  84.4225863  80.2561954  67.4931634  84.6413177
  79.9034200  66.0220292  84.6978240  65.1778859  58.6942742  98.2822680
  64.4360595  58.8425377  98.8687310  64.8571603  58.9551007  97.4189429
  81.4602473  64.3224646  85.9513193  81.9853797  64.6611919  85.2262513
  81.3724826  63.3871662  85.7676328  73.1443134  70.3896630  90.3108447
  72.7048124  69.8973008  91.0041303  73.8951251  69.8469597  90.0700522
  65.6235473  66.5808170  90.3133075  66.4493493  66.2811942  89.9331718
  65.2729525  65.8115793  90.7622863  70.5917006  65.9334639  92.3830748
  69.9697015  65.2705344  92.0832976  71.2621873  65.9595771  91.7004396
  63.8244078  64.4994497  91.2722008  62.9875986  64.0716671  91.0906009
  63.7967723  64.6926940  92.2092799  70.6641533  54.4116427 101.9763254
  70.7129689  55.2878550 101.5941024  71.2064048  53.8693820 101.4034897
  70.1530513  64.4838562  85.8589209  70.3018633  65.1674026  85.2055882
  70.9596956  64.4643652  86.3738665  78.5598016  57.7880944  99.8856427
  79.4607879  57.6487409  99.5940424  78.6345991  57.9535399 100.8254604
  72.8940822  55.1647799  98.7309613  72.0244131  55.4581365  98.4592201
  73.1300302  55.7488244  99.4516877  83.9708133  61.7899838  91.3341712
  84.8055025  62.2289642  91.4979272  84.1067262  61.3138491  90.5149957
  81.0199639  59.3479573  97.2819199  81.4953761  59.5407219  96.4738051
  80.0965205  59.4038758  97.0362583  67.9083146  60.5103740  86.8650278
  67.6629188  59.6066070  87.0630488  68.0779060  60.5120890  85.9229756
  75.5979856  51.3827416  96.2475033  76.1161799  52.1188443  95.9221522
  75.2434988  51.6891409  97.0821792  67.1778793  56.2432097  84.3636439
  66.4848038  56.3176452  83.7076475  66.9330545  55.4792441  84.8857956
  75.8492450  47.8027699  91.7675930  76.1294204  47.1350888  92.3936356
  76.6343057  47.9956794  91.2550594  73.6525918  66.9786692  83.3300956
  73.0799885  67.5976880  82.8771428  74.2258712  67.5286054  83.8640878
  79.7201308  56.2245333  95.5147505  80.6718731  56.3243430  95.5359729
  79.5504759  55.4323601  96.0245589  77.7415688  53.3100916  95.7006906
  77.1465620  53.5905929  95.0053395  77.4565384  53.7994817  96.4723647
  76.8723178  67.2623843  84.4609538  77.8053851  67.1969404  84.6642414
  76.7846391  68.0980109  84.0024071  79.5011195  66.5789713  81.4213486
  79.4224826  66.2449577  82.3149244  80.3220862  67.0711481  81.4204958
  82.1989386  59.4451452  94.6289805  82.1665706  58.5067453  94.8149488
  82.8090010  59.5235489  93.8955630  74.0372717  58.3147505  80.6717009
  74.9831822  58.1853713  80.7405427  73.6586962  57.5762167  81.1486437
  82.3483874  56.2362496  94.6748088  81.8322923  55.4520952  94.4878017
  83.2323823  55.9081212  94.8394607  80.0094601  49.9803511  90.6343901
  79.8119422  49.6718599  91.5187232  80.6194307  50.7065150  90.7641830
  88.0165936  60.5067459  93.7695841  88.7469324  60.2452747  94.3303545
  87.4072881  59.7696181  93.8097909  86.0981233  58.6475322  94.3670293
  85.3714396  58.5131287  93.7586784  85.6828520  58.9552150  95.1727011
  72.2215634  56.2397482  80.6071894  71.3147089  55.9430594  80.6834608
  72.4991615  55.9427300  79.7406180  66.9173482  60.2766286  94.7740447
  67.1359492  61.2083394  94.7928481  67.3299256  59.9174260  95.5595251
  73.8377700  50.7834371  86.7616135  73.0278428  50.4381456  87.1371381
  74.5262117  50.4741915  87.3503747  75.7668248  49.8612418  88.3840432
  76.3199287  50.2807872  89.0430455  76.0038334  48.9348166  88.4263388
  71.7901347  55.8499492 104.1643196  71.6898074  56.7993849 104.0955287
  71.5722889  55.5217731 103.2919266  70.9914419  53.0984417  80.7483873
  71.8533583  53.4239315  81.0079690  71.1764763  52.3115913  80.2356939
  63.0081834  61.1806757  93.0264062  62.3145306  60.7660709  92.5134016
  63.7554825  61.2227293  92.4297481  79.1447055  51.9712943  87.8919096
  78.5645724  52.6297747  87.5097149  78.8782988  51.1490288  87.4806514
  77.5950621  51.3718001  90.0940416  78.0950400  51.4834536  89.2854735
  78.2386229  51.0679054  90.7341225  64.9218577  61.1125010  90.9030077
  64.8989265  61.2112698  89.9511960  65.2319213  61.9590161  91.2247243
  67.5805955  63.1701165  95.0176691  68.5349208  63.1385108  94.9506623
  67.3818478  62.7091789  95.8326917  68.1705337  61.7402281  97.5847489
  68.9898226  62.2346360  97.6082326  68.4442145  60.8234250  97.5565056
  77.9271933  54.1313034  86.9475444  77.0397788  54.4162684  86.7295639
  78.3425922  53.9706797  86.1002721  81.2786469  54.1559555  90.6629784
  82.0546859  54.6456007  90.9354400  80.5534603  54.5817609  91.1201653
  83.7159028  54.8687174  91.7203724  84.3103519  54.6282910  91.0097032
  83.7885612  54.1494304  92.3477261  65.9356184  68.7120785  92.0346889
  65.8010651  67.9521186  91.4684887  65.5188246  69.4361685  91.5675678
  77.0715147  63.8957708  81.0423464  77.7750997  64.1007711  81.6581120
  76.3477795  64.4634470  81.3072548  77.9012957  59.6467570  87.1625735
  77.8448158  60.1036121  86.3233367  78.4541299  58.8858254  86.9848577
  81.7117763  55.4357302  87.9875854  81.4554697  55.0353937  88.8184062
  81.0870631  56.1501095  87.8625993  86.0230101  58.1753375  90.4947145
  85.4629659  58.2446564  91.2678707  85.4173604  57.9994359  89.7746642
  69.0925309  69.6090102  92.2465332  68.9757694  70.5535534  92.1444022
  68.2717756  69.3063663  92.6351131  78.9801844  64.3340238  83.0921924
  79.8147448  63.9021436  82.9099399  78.8186187  64.1622251  84.0198819
  78.6347736  60.8372351  84.4578264  78.5796540  60.6716622  83.5166708
  78.0093791  61.5448384  84.6140453  63.4240251  56.0740415  98.2839686
  64.0699115  55.5639369  98.7726911  63.2157402  56.8109097  98.8583111
  71.9443862  50.3380460  84.0363582  71.9322531  51.2822300  84.1931853
  72.8367283  50.1550605  83.7423043  70.1179824  70.2618364  95.4621260
  71.0207070  70.2941974  95.7787755  69.8917194  69.3318815  95.4767596
  71.8733426  69.0149350  92.1231339  70.9229057  69.0151212  92.0095711
  72.1765912  68.2682085  91.6067373  75.7595981  46.9323237  88.2909519
  74.9928377  46.3781723  88.4366201  76.1706686  47.0045105  89.1523671
  67.7637742  53.2208032 102.3814700  68.6269204  52.8644837 102.5918025
  67.1903153  52.8821927 103.0690104  80.2762641  76.6572793  89.1135517
  79.7127506  76.5662730  88.3451805  80.1615036  75.8372698  89.5938009
  79.7817827  77.4132898  84.8237116  80.5548703  76.8661885  84.6849992
  80.1343226  78.2777147  85.0351577  82.1184105  73.5725564  82.4555566
  82.3709625  73.0507085  81.6939029  81.1808664  73.4091710  82.5582250
  87.3337465  78.0134193  84.9618966  86.6983298  78.0868819  85.6739871
  87.0034871  78.6027792  84.2838045  81.8380393  75.4753670  84.6579941
  81.7216652  74.7998574  85.3261025  81.9482653  74.9886044  83.8412094
  84.1811934  74.9363817  88.3626630  83.8170142  74.4094438  89.0739552
  85.0379050  74.5462286  88.1893116  83.8217421  69.9653717  83.3587979
  83.9891824  70.8333953  83.7258450  83.6314590  70.1280999  82.4349268
  83.8006642  72.4211374  84.3434646  83.6806267  72.8668425  85.1820126
  83.1059231  72.7696692  83.7848184  89.4991708  72.8932848  85.1714980
  90.4109564  73.1260234  84.9962677  88.9901355  73.4769892  84.6090058
  82.5958139  73.7356227  86.6368211  83.2982182  74.1877270  87.1042138
  82.2638767  73.0940045  87.2648104  76.3383473  71.9939779  91.9385345
  75.5482527  72.2497308  91.4625455  76.8294720  72.8088117  92.0437385
  78.2898218  72.3584358  88.8968822  77.4929381  72.4703053  89.4152317
  78.0623810  72.6971011  88.0309712  77.2881301  78.0672607  87.2858242
  77.8005821  78.8615857  87.4363806  77.9404013  77.3698898  87.2191843
  75.2530217  76.3961261  88.0617812  76.0905439  76.8058270  87.8451520
  75.4308485  75.4560704  88.0318006  87.1494650  74.0636342  83.7501645
  86.6341273  74.8340947  83.9890032  86.8771958  73.3901478  84.3734706
  84.7341761  68.9086043  88.8086883  83.8783357  68.5192893  88.6292522
  85.1468712  68.9878004  87.9486669  82.5083793  66.5271116  92.2144625
  83.3736790  66.3313925  91.8550514  82.5761302  66.2981468  93.1413982
  86.9380953  71.9363434  85.5761426  86.6331088  72.2509583  86.4271569
  87.8911395  72.0144854  85.6188759  80.1146112  68.7573324  89.5860992
  80.6889864  68.5348505  88.8534185  80.7017095  68.8262018  90.3389593
  80.4415699  70.7877785  83.6056877  79.6053012  71.1252471  83.9266152
  80.3020469  70.6526765  82.6684014  82.4168780  65.6314573  88.3136061
  81.7633192  65.3163590  87.6892676  82.3749254  65.0090313  89.0395884
  83.5279985  75.9133868  80.2289353  82.6207046  75.6823121  80.4280502
  84.0251017  75.1171487  80.4163335  86.4341568  73.5187922  87.7686389
  87.1813387  74.0309319  87.4593511  86.7033158  73.1971975  88.6290783
  84.7068218  76.0146463  84.7513343  83.7979437  75.7305495  84.8485813
  84.7363302  76.4345541  83.8916650  88.9832032  63.3321290  90.3446948
  89.2890909  62.4718654  90.0572863  89.7084637  63.9238910  90.1445942
  75.2756389  73.7351977  88.7328546  75.0780788  73.1421338  88.0079612
  74.7203053  73.4304187  89.4504484  84.4044306  77.5555206  82.0901422
  83.9663736  76.8391065  81.6307059  85.1454747  77.7831321  81.5286513
  81.1945472  72.2452143  88.6113518  80.3813338  72.5446314  89.0178710
  81.6904466  71.8507832  89.3288000  77.7702614  73.2616011  86.4169498
  76.8400202  73.2000466  86.6339460  77.8660086  72.7391963  85.6206139
  77.6888163  69.7870824  89.0047739  77.9494981  70.7016157  88.8956900
  78.5105336  69.3195266  89.1544352  88.5255534  76.4139588  81.6833479
  87.9084704  75.6886416  81.5866532  88.0572022  77.1748948  81.3400554
  80.3154079  70.6325012  80.8054784  79.4383546  70.5113813  80.4417030
  80.7911833  69.8411091  80.5533672  71.8356220  75.4202172  90.8996291
  72.5227259  75.1063902  90.3117306  71.6804348  76.3243537  90.6263542
  86.8114656  68.7945932  90.6951510  87.3083355  68.0415894  90.3752580
  86.0401637  68.8310249  90.1294719  83.3949624  70.9363315  90.4223194
  83.0247412  70.3834355  91.1104100  83.8908717  70.3321449  89.8698194
  71.4124196  73.5002765  93.1713758  71.4508295  72.9666356  93.9650876
  70.9064489  72.9737971  92.5524735  75.0432773  72.2266868  86.2467689
  75.3386214  71.3177546  86.1934743  74.1420809  72.2054607  85.9248692
  78.5727020  70.3022864  92.2295238  77.8513606  70.9158832  92.0902711
  79.3620276  70.8380629  92.1511884  76.7720615  69.9080965  86.3707015
  76.4433321  69.0278344  86.1882121  77.1259986  69.8528634  87.2583404
  79.8862438  70.1953935  86.7382492  80.2258511  70.7239856  86.0161101
  80.3334559  70.5334341  87.5141059  81.8730585  68.6928557  84.9375785
  82.5938948  69.0709809  84.4339502  81.2495889  69.4117433  85.0410763
  86.0161708  69.3973706  85.8734117  86.2325322  70.2798343  85.5722946
  85.5355775  69.0059919  85.1439759  82.0194208  68.2276347  87.7673322
  82.1410119  67.2992993  87.9664209  81.7296251  68.2415033  86.8551637
  84.8885399  65.9131257  90.9040041  84.9107096  65.9770591  89.9492021
  85.3053458  65.0735766  91.0980548  80.9924267  79.8130480  85.8589209
  81.1412388  80.4965944  85.2055882  81.7990711  79.7935570  86.3738665
  78.7476900  75.8395657  86.8650278  78.5022942  74.9357987  87.0630488
  78.9172815  75.8412808  85.9229756  78.0172548  71.5724015  84.3636439
  77.3241793  71.6468370  83.7076475  77.7724300  70.8084359  84.8857956
  86.6886204  63.1319616  91.7675930  86.9687958  62.4642805  92.3936356
  87.4736811  63.3248712  91.2550594  84.4919673  82.3078610  83.3300956
  83.9193640  82.9268797  82.8771428  85.0652466  82.8577972  83.8640878
  90.3404949  81.9081631  81.4213486  90.2618581  81.5741494  82.3149244
  91.1614616  82.4003399  81.4204958  84.8766471  73.6439423  80.6717009
  85.8225576  73.5145631  80.7405427  84.4980716  72.9054085  81.1486437
  90.8488356  65.3095429  90.6343901  90.6513177  65.0010517  91.5187232
  91.4588061  66.0357068  90.7641830  83.0609388  71.5689399  80.6071894
  82.1540844  71.2722512  80.6834608  83.3385369  71.2719217  79.7406180
  73.9787329  72.8895763  91.0570940  73.6590113  72.0361071  90.7645314
  73.4320757  73.1044341  91.8128908  84.6771454  66.1126289  86.7616135
  83.8672182  65.7673374  87.1371381  85.3655871  65.8033833  87.3503747
  86.6062002  65.1904336  88.3840432  87.1593041  65.6099789  89.0430455
  86.8432089  64.2640084  88.4263388  81.8308173  68.4276335  80.7483873
  82.6927337  68.7531233  81.0079690  82.0158517  67.6407830  80.2356939
  89.9840810  67.3004861  87.8919096  89.4039479  67.9589665  87.5097149
  89.7176742  66.4782206  87.4806514  88.4344376  66.7009919  90.0940416
  88.9344154  66.8126453  89.2854735  89.0779984  66.3970972  90.7341225
  88.7665688  69.4604951  86.9475444  87.8791543  69.7454602  86.7295639
  89.1819677  69.2998715  86.1002721  87.9108901  79.2249626  81.0423464
  88.6144751  79.4299629  81.6581120  87.1871550  79.7926388  81.3072548
  89.4741491  76.1664269  84.4578264  89.4190294  76.0008540  83.5166708
  88.8487546  76.8740301  84.6140453  82.7837616  65.6672378  84.0363582
  82.7716286  66.6114217  84.1931853  83.6761038  65.4842523  83.7423043
  86.5989736  62.2615154  88.2909519  85.8322131  61.7073641  88.4366201
  87.0100440  62.3337023  89.1523671  42.4987183  -3.9861787  71.1495288
  41.8475163  -3.4007707  70.7629302  43.2931546  -3.4555592  71.2090326
  36.4242810  -6.8972650  71.5482423  37.1973686  -7.4443663  71.4095299
  36.7768209  -6.0328401  71.7596884  38.2038518   0.8809468  74.7170083
  38.1262547   1.8317293  74.7958564  37.6000161   0.5355341  75.3745010
  40.4776887  -3.7608379  73.4375623  40.3422561  -2.9156843  73.8660471
  41.0186699  -3.5589101  72.6741557  33.9306284  -6.2432941  74.0103548
  34.4430804  -5.4489691  74.1609113  34.5828997  -6.9406650  73.9437150
  35.7401169  -3.1267185  76.0926301  35.9167797  -2.2049220  75.9047285
  36.5358002  -3.4408765  76.5220681  43.0773047   0.3125827  69.8731346
  42.4034746   0.6157524  70.4816304  43.4638869   1.1154907  69.5236803
  45.0245408  -2.8475999  76.1799636  45.3168382  -2.2870942  75.4612001
  45.5344029  -2.5547438  76.9352795  39.9879033  -2.0695648  77.2693089
  39.9455212  -1.8434802  76.3401621  40.9041732  -2.3032274  77.4178890
  41.2764262   0.4805499  72.0878425  41.4516018   0.0093543  72.9024048
  40.5897050   1.1071266  72.3159686  35.8425347   3.6294862  78.8618285
  36.0821946   4.2613386  79.5397304  34.9994544   3.2782902  79.1483645
  40.1442989  -1.3254245  74.7762611  39.3610511  -0.7832565  74.8700835
  40.8435734  -0.8080266  75.1756852  45.9918202  -4.5726788  72.5271426
  46.2678046  -4.6870194  73.4365300  45.1222701  -4.9709303  72.4883599
  42.6272266  -0.3240437  76.1704240  42.8094661  -1.1418781  76.6331992
  43.4505252  -0.1072745  75.7329129  42.9614432  -1.3972252  73.4319288
  43.4902198  -1.9079798  72.8189450  43.2242651  -1.7129722  74.2964821
  36.3170180  -0.3457136  76.1917064  35.6480555   0.1388992  75.7081104
  36.1783049  -0.0987915  77.1060442  43.5943835  -0.3631416  79.7763404
  43.4694975  -1.1641677  79.2674350  44.2522927   0.1314777  79.2877374
  42.6625177  -2.7669680  77.6047307  42.5150140  -3.6952973  77.7854877
  43.4878671  -2.7449589  77.1204382  46.2659299  -1.9441121  78.6912180
  47.1905846  -2.1498260  78.5536631  46.0974602  -2.1924720  79.6001521
  46.0554615  -1.4255454  74.0474271  46.2291493  -1.9909032  73.2948123
  46.5483506  -0.6254559  73.8653761  47.0429788  -2.1088690  71.1471169
  47.7380692  -1.4881997  71.3658484  47.3852938  -2.9593338  71.4223547
  40.6261871   1.4082999  77.0353753  40.1866862   0.9159378  77.7286610
  41.3769988   0.8655967  76.7945828  37.6349251  -4.4975068  72.5834515
  37.7837371  -3.8139604  71.9301188  38.4415694  -4.5169978  73.0983971
  41.1344656  -2.0026938  70.0546263  40.5618623  -1.3836751  69.6016735
  41.7077450  -1.4527576  70.5886185  44.3541916  -1.7189788  71.1854845
  45.2872589  -1.7844226  71.3887721  44.2665129  -0.8833521  70.7269378
  46.9829933  -2.4023917  68.1458793  46.9043564  -2.7364054  69.0394551
  47.8039599  -1.9102150  68.1450265  44.5533884  -5.0855922  67.7668771
  45.2569734  -4.8805920  68.3826427  43.8296533  -4.5179160  68.0317855
  39.3552163   0.0335720  78.8476645  38.4047794   0.0337581  78.7341018
  39.6584649  -0.7131546  78.3312680  55.0904857   5.8696258  79.9122408
  55.7283267   5.7503006  79.2085748  54.9725700   6.8177102  79.9710360
  51.8994563   5.8223686  79.8483933  51.5613075   5.7064751  78.9604467
  52.7684331   5.4214851  79.8284939  47.7581379   7.6759163  75.8380823
  47.1946244   7.5849100  75.0697111  47.6433774   6.8559067  76.3183316
  52.3814346   6.9758538  85.8070138  52.3702987   6.5811336  84.9350642
  52.5434986   6.2424611  86.4003909  45.3045811   9.1710354  78.6765044
  46.0967103   8.8301179  78.2611343  45.5442461   9.2805329  79.5967197
  53.3380938  11.3430130  71.1495288  52.6868917  11.9284211  70.7629302
  54.1325300  11.8736325  71.2090326  47.2636565   8.4319268  71.5482423
  48.0367441   7.8848255  71.4095299  47.6161964   9.2963517  71.7596884
  49.1021607   9.7595650  84.7549322  48.8111473  10.6641281  84.6395988
  49.7378592   9.8012178  85.4693392  50.0277814   7.1372498  81.3450682
  50.6241386   6.9128521  80.6307645  50.0852786   6.3957244  81.9476130
  49.6002842   4.5911934  69.1800873  49.8528363   4.0693455  68.4184336
  48.6627402   4.4278079  69.2827556  54.6446125   3.5947712  76.9875616
  55.4309215   3.1767135  76.6366033  54.9084830   4.4993804  77.1557264
  54.8156203   9.0320562  71.6864273  54.1802036   9.1055189  72.3985177
  54.4853609   9.6214161  71.0083352  60.0454552   3.5322945  77.8908594
  60.7779724   2.9622162  78.1246424  59.2893908   3.1444546  78.3315100
  49.3199131   6.4940040  71.3825248  49.2035389   5.8184943  72.0506332
  49.4301391   6.0072414  70.5657401  51.6630672   5.9550187  75.0871937
  51.2988879   5.4280808  75.7984858  52.5197788   5.5648656  74.9138422
  51.3036159   0.9840087  70.0833285  51.4710561   1.8520323  70.4503756
  51.1133328   1.1467368  69.1594575  54.0611492   9.4457065  81.7499116
  53.7612215  10.3482104  81.6414923  53.7162552   9.1789249  82.6020269
  47.5123974   5.8970862  77.7835820  46.5874470   5.7647076  77.9913512
  47.7608387   6.6765081  78.2805763  57.4608636   1.9639606  79.4296553
  56.5525513   1.8955014  79.1355314  57.4096232   2.4411551  80.2578379
  51.2825380   3.4397744  71.0679952  51.1625005   3.8854795  71.9065432
  50.5877968   3.7883062  70.5093490  44.8732785   5.5404136  78.6179609
  45.0025166   5.7938615  79.5319021  44.1930236   6.1331844  78.2984264
  49.0432272  16.2101386  74.7170083  48.9656302  17.1609211  74.7958564
  48.4393916  15.8647258  75.3745010  59.3270283   0.1656044  81.2074427
  58.6844663   0.4588577  80.5614222  58.8225211   0.0508964  82.0127624
  56.9810446   3.9119217  71.8960286  57.8928302   4.1446604  71.7207984
  56.4720093   4.4956261  71.3335365  49.7895874   6.1914705  86.9349417
  50.5310559   6.7299749  86.6584241  49.0832860   6.8180993  87.0920969
  55.2651214   8.3343845  85.5321579  55.6734570   7.8926256  84.7876211
  54.5428475   7.7596473  85.7855772  51.6182284   3.2716452  82.9055136
  52.4643479   3.6955865  83.0489785  51.5580922   2.6150076  83.5993699
  55.5880028   8.8945036  79.2873868  54.9588891   9.0590750  78.5849936
  55.2005691   9.3086645  80.0584832  59.4669260   9.8299473  76.6418231
  58.7820299  10.2098375  76.0915265  59.5513110  10.4394800  77.3750179
  54.7681729   0.9320820  84.5636309  54.5242661   1.6862881  84.0270585
  55.0441660   1.3106168  85.3983556  56.7220192   7.4759433  83.2413575
  56.9337087   8.1191192  82.5647956  56.6749940   6.6421749  82.7735505
  54.3246421   0.0877253  80.1450147  53.4630900   0.3858507  80.4366885
  54.3508856   0.3047652  79.2131180  51.1407990   8.6319444  76.5523953
  51.6046336   8.9107147  75.7628575  50.8764788   7.7302888  76.3697043
  48.0332071   8.1790925  79.4903716  48.6033428   8.6078194  78.8521201
  48.6240183   7.8973510  80.1887902  50.0776876   4.7542596  73.3613518
  50.7800920   5.2063640  73.8287444  49.7457505   4.1126415  73.9893411
  43.8202210   3.0126149  78.6630651  43.0301264   3.2683677  78.1870762
  44.3113458   3.8274487  78.7682692  57.8366020  10.3531388  81.4135932
  58.6583464   9.9511575  81.1318614  57.8328423  10.2499622  82.3652048
  45.7716956   3.3770728  75.6214128  44.9748119   3.4889422  76.1397624
  45.5442548   3.7157380  74.7555019  51.6022623   9.9015431  83.5696643
  51.6667056  10.3635838  84.4054815  50.8933547   9.2712796  83.6978953
  42.1039913   3.2656639  81.0945642  42.3547952   4.1503649  81.3603218
  42.6399462   3.0861241  80.3220734  65.9272013   6.6970136  77.7620904
  65.1735721   6.1277534  77.6064908  66.0619554   6.6632801  78.7091538
  51.3170641  11.5683539  73.4375623  51.1816316  12.4135074  73.8660471
  51.8580454  11.7702816  72.6741557  44.7700038   9.0858977  74.0103548
  45.2824559   9.8802227  74.1609113  45.4222751   8.3885267  73.9437150
  46.5794923  12.2024733  76.0926301  46.7561551  13.1242698  75.9047285
  47.3751757  11.8883152  76.5220681  52.9439117  12.1907105  87.5675965
  52.5002972  11.4043484  87.2496870  53.6056331  12.3786256  86.9019856
  47.7026239  13.7202907  82.0936644  48.2533664  13.5919970  81.3213638
  46.8637714  14.0197796  81.7431537  55.0420355  12.4709905  85.5957366
  55.0238831  13.2918786  85.1037636  55.9640276  12.3463980  85.8207508
  51.4993410   9.9854035  86.4380875  52.0321746   9.2242323  86.2080183
  50.9707491   9.6927686  87.1805029  42.7348955   7.4147631  74.7863119
  43.5724177   7.8244639  74.5696826  42.9127223   6.4747073  74.7563313
  54.6313387   5.0822712  70.4746952  54.1160011   5.8527316  70.7135339
  54.3590696   4.4087848  71.0980013  52.2160498  -0.0727588  75.5332190
  51.3602095  -0.4620737  75.3537829  52.6287450   0.0064373  74.6731976
  49.9902531  -2.4542515  78.9389932  50.8555528  -2.6499706  78.5795821
  50.0580040  -2.6832163  79.8659288  59.6047661   7.8355066  72.4100125
  58.8277104   7.4966226  71.9655287  60.2839142   7.8407690  71.7355090
  54.4199690   2.9549804  72.3006733  54.1149826   3.2695953  73.1516876
  55.3730133   3.0331224  72.3434066  52.8646122   9.1140027  73.9499687
  52.3367484   8.3792787  73.6372924  52.3633625   9.8914703  73.7039655
  57.8438968   7.3089048  79.0666733  57.1862643   7.9988309  79.1546862
  58.6479368   7.6985480  79.4100720  47.5964850  -0.2240307  76.3106298
  48.1708602  -0.4465125  75.5779491  48.1835832  -0.1551612  77.0634900
  56.6544427   5.6633420  77.1170675  57.1676309   6.2963412  77.6192385
  57.3045651   5.0634616  76.7514035  47.9234437   1.8064154  70.3302184
  47.0871749   2.1438841  70.6511458  47.7839207   1.6713134  69.3929321
  51.0098723   6.9320237  66.9534660  50.1025784   6.7009491  67.1525809
  51.5069754   6.1357857  67.1408641  53.9166801  15.6417745  69.8731346
  53.2428500  15.9449441  70.4816304  54.3032623  16.4446825  69.5236803
  53.1325258   3.1382876  79.3629015  52.2147819   3.3597823  79.2050703
  53.5485402   3.2129186  78.5040723  53.9160306   4.5374292  74.4931696
  54.6632125   5.0495689  74.1838818  54.1851895   4.2158344  75.3536089
  52.1886956   7.0332832  71.4758650  51.2798175   6.7491865  71.5731120
  52.2182040   7.4531911  70.6161957  57.4206223  10.6439422  75.2449818
  56.9668550   9.8030332  75.3015008  56.7900190  11.2800820  75.5824598
  56.3639143   1.5731408  76.4750485  55.6261900   1.0608794  76.8060728
  56.6165916   1.1331789  75.6633762  55.8639163  12.4815918  76.1799636
  56.1562137  13.0420976  75.4612001  56.3737783  12.7744479  76.9352795
  42.7575126   4.7538346  75.4573852  42.5599526   4.1607707  74.7324919
  42.2021790   4.4490557  76.1749791  50.7371850   4.6461453  77.5768445
  50.7920460   3.6935289  77.5010922  49.9263052   4.8020892  78.0609744
  51.8863044   8.5741576  68.8146729  51.4482474   7.8577435  68.3552366
  52.6273485   8.8017691  68.2531820  48.6764210   3.2638513  75.3358824
  47.8632075   3.5632683  75.7424016  49.1723204   2.8694201  76.0533306
  50.8272788  13.2596270  77.2693089  50.7848967  13.4857116  76.3401621
  51.7435487  13.0259644  77.4178890  54.2738422   3.7280337  84.1673718
  54.6287809   3.9551810  85.0268184  54.9210553   4.0598714  83.5450973
  60.0036159   6.8498773  74.8723047  59.8654057   7.0400369  73.9444236
  59.6472377   7.6118156  75.3291098  48.1678285   0.8356868  80.9520059
  48.8077664   0.6945627  80.2543022  47.3355815   0.5491382  80.5758661
  60.0305538   8.9175300  79.8834319  60.4642045   8.8250589  80.7317373
  60.7437119   8.8932800  79.2454335  48.9438589  10.1359299  77.0655052
  49.7379187   9.6409619  76.8637627  48.2330281   9.6077162  76.7022757
  53.7633433  12.5177394  81.4167419  53.8170455  13.0868330  82.1845135
  52.8948214  12.6879279  81.0521456  45.2521352   4.2802380  73.1414804
  44.3218940   4.2186836  73.3584766  45.3478824   3.7578333  72.3451446
  45.1706901   0.8057193  75.7293046  45.4313718   1.7202526  75.6202206
  45.9924073   0.3381636  75.8789659  46.6431826   2.2194950  82.8991870
  47.3154880   2.0112312  82.2504519  45.8161613   2.0217036  82.4597103
  60.8921088   8.9599001  82.4167204  61.0856978   9.8644811  82.6626479
  60.7921706   8.5006420  83.2505789  55.9536196   9.1105743  87.9908085
  55.8021703   8.8816295  87.0738168  55.9440876  10.0676345  88.0039430
  52.7221533   6.6837656  82.9754351  53.6513593   6.8348816  82.8023318
  52.3012563   6.7721677  82.1202998  51.5209865  10.7088321  80.7452889
  51.3820950  10.3407105  81.6178827  50.7324461  11.2235960  80.5736846
  52.1158017  15.8097417  72.0878425  52.2909772  15.3385460  72.9024048
  51.4290805  16.4363183  72.3159686  53.0715080  10.0869923  78.1341726
  52.7364912  10.0470693  79.0299376  52.5719025   9.4214639  77.6612137
  47.0459324   5.4937553  83.6594308  46.9079122   4.7617792  84.2605847
  47.9564247   5.4046453  83.3778495  56.0074271   7.4325958  68.4078786
  55.3903442   6.7072786  68.3111839  55.5390760   8.1935318  68.0645860
  49.6741624   5.2057513  83.1477987  50.3841243   4.5650705  83.1064606
  49.6310933   5.4570407  84.0704168  57.6628403  12.1424866  86.0684566
  57.6040949  11.4584086  85.4015150  58.0647921  12.8843856  85.6165192
  46.6819102  18.9586780  78.8618285  46.9215700  19.5905304  79.5397304
  45.8388298  18.6074820  79.1483645  47.7972817   1.6511382  67.5300090
  46.9202284   1.5300183  67.1662337  48.2730570   0.8597460  67.2778979
  57.6645810  10.1064450  84.2998546  56.7772589   9.7690372  84.4224945
  58.2344361   9.3747481  84.5367312  39.3174957   6.4388542  77.6241598
  40.0045997   6.1250272  77.0362613  39.1623086   7.3429906  77.3508849
  44.1209680   1.3278738  82.0526621  44.0367868   0.7204408  81.3177031
  43.2992386   1.8187756  82.0536118  51.1946964  14.7665902  81.2659789
  51.1217135  15.5720874  81.7779094  50.7524357  14.9657868  80.4407811
  50.9836743  14.0037672  74.7762611  50.2004265  14.5459352  74.8700835
  51.6829488  14.5211652  75.1756852  54.2933393  -0.1867698  77.4196816
  54.7902093  -0.9397736  77.0997887  53.5220375  -0.1503382  76.8540026
  62.1463151   5.5172667  79.0615108  62.1353027   6.3997383  78.6909041
  61.2780530   5.1644218  78.8669645  53.6545647  14.6652736  83.4217948
  54.3673619  15.3000201  83.3493849  53.1635676  14.7616602  82.6057950
  55.3763174   8.5703989  74.9935240  54.4419453   8.6905451  74.8239944
  55.5539843   7.6676456  74.7295250  50.8768362   1.9549685  77.1468501
  50.5066150   1.4020725  77.8349406  51.3727455   1.3507818  76.5943501
  58.7635725   4.4121308  75.5285274  59.2296178   5.2449300  75.4545577
  59.2143226   3.9466290  76.2330532  48.7057561  12.4147180  84.2423519
  49.4067020  13.0483663  84.3952913  48.2352676  12.7561911  83.4819158
  56.8311957  10.7565129  72.5271426  57.1071800  10.6421724  73.4365300
  55.9616455  10.3582614  72.4883599  56.5058847   4.9691787  82.0676069
  55.8530297   5.2167695  81.4128522  56.8839227   4.1555925  81.7338546
  53.4666021  15.0051480  76.1704240  53.6488415  14.1873136  76.6331992
  54.2899007  15.2219173  75.7329129  53.8008186  13.9319665  73.4319288
  54.3295953  13.4212120  72.8189450  54.0636406  13.6162196  74.2964821
  44.3025279  11.9483535  81.1754622  44.8878716  11.2027223  81.3082526
  44.1050117  12.2587491  82.0591285  47.1563934  14.9834782  76.1917064
  46.4874309  15.4680910  75.7081104  47.0176804  15.2304003  77.1060442
  38.8942934   4.5189135  79.8959065  38.9327033   3.9852726  80.6896183
  38.3883226   3.9924340  79.2770042  51.2969203  17.0178526  82.7899722
  51.8487511  17.1810147  83.5548808  51.6375396  17.6082963  82.1179747
  56.1480077  11.8439783  88.6448377  56.6919981  12.4569741  88.1503332
  55.5666922  12.4019362  89.1615390  42.5251511   3.2453237  72.9712996
  42.8204952   2.3363916  72.9180050  41.6239547   3.2240977  72.6493998
  54.4337590  14.9660501  79.7763404  54.3088729  14.1650241  79.2674350
  55.0916681  15.4606695  79.2877374  46.0545758   1.3209234  78.9540545
  45.3332344   1.9345201  78.8148018  46.8439014   1.8566999  78.8757191
  56.4972498  12.7669521  81.4042955  55.5502834  12.6474872  81.3321281
  56.8455271  11.8792019  81.4869216  44.2539353   0.9267335  73.0952321
  43.9252059   0.0464714  72.9127427  44.6078723   0.8715003  73.9828710
  53.5018932  12.5622237  77.6047307  53.3543894  11.6338945  77.7854877
  54.3272425  12.5842328  77.1204382  47.3681176   1.2140305  73.4627799
  47.7077248   1.7426226  72.7406407  47.8153296   1.5520711  74.2386365
  57.1053053  13.3850796  78.6912180  58.0299601  13.1793658  78.5536631
  56.9368357  13.1367197  79.6001521  50.0624617  -0.4022645  82.9130867
  49.7221437  -1.2014832  83.3151547  49.3563623  -0.1020934  82.3407700
  49.3549323  -0.2885074  71.6621092  50.0757686   0.0896179  71.1584809
  48.7314627   0.4303803  71.7656070  53.4980446   0.4160075  72.5979424
  53.7144060   1.2984713  72.2968252  53.0174513   0.0246289  71.8685066
  48.2379667   3.3745788  79.1750169  48.0924248   3.6886091  80.0674450
  47.7604871   3.9930689  78.6221067  50.0976050   0.3648336  79.2231058
  50.0837619  -0.5310570  78.8863356  50.8148478   0.3719000  79.8569344
  51.9502181   0.7985677  81.2684186  51.6919959   1.7202747  81.2668516
  51.4187221   0.4016111  81.9584650  56.8948370  13.9036464  74.0474271
  57.0685247  13.3382886  73.2948123  57.3877261  14.7037359  73.8653761
  42.7125329   5.9151133  82.1137830  42.1678798   6.6910941  82.2458104
  43.5904679   6.2621937  81.9556951  49.5012946  -0.7537283  74.4918628
  49.6228857  -1.6820637  74.6909516  49.2114988  -0.7398597  73.5796944
  62.7487761   6.6672887  75.6664571  63.1918907   5.9180212  75.2683694
  61.8714271   6.6583023  75.2838303  57.8823542  13.2203228  71.1471169
  58.5774447  13.8409921  71.3658484  58.2246692  12.3698579  71.4223547
  59.7814965  10.6702934  72.6758500  60.3066289  11.0090206  71.9507820
  59.6937318   9.7349949  72.4921635  51.4435014  14.5837007  84.8048377
  51.7522140  14.3386154  85.6771076  52.2410496  14.7883646  84.3167247
  51.4655626  16.7374917  77.0353753  51.0260616  16.2451296  77.7286610
  52.2163743  16.1947885  76.7945828  43.9447965  12.9286458  77.0378381
  44.7705985  12.6290230  76.6577025  43.5942017  12.1594080  77.4868170
  48.9129498  12.2812926  79.1076055  48.2909507  11.6183631  78.8078283
  49.5834365  12.3074058  78.4249703  42.1456570  10.8472784  77.9967315
  41.3088478  10.4194959  77.8151316  42.1180215  11.0405228  78.9338106
  59.4708871  11.3035837  87.9809698  58.6804415  11.2859976  87.4414197
  59.2342226  11.8424131  88.7358735  59.5906746   8.1528304  85.2942427
  59.6404751   7.9878311  86.2357949  59.4820670   7.2855563  84.9040307
  48.4743005  10.8316849  72.5834515  48.6231125  11.5152314  71.9301188
  49.2809448  10.8121939  73.0983971  56.8810509   4.1359232  86.6101733
  57.7820371   3.9965696  86.3185731  56.9558483   4.3013686  87.5499911
  61.0924943  10.5725245  85.5384448  60.8009751  10.9355226  86.3747909
  60.4797074   9.8592253  85.3597780  62.2920625   8.1378125  78.0587018
  63.1267517   8.5767929  78.2224579  62.4279754   7.6616778  77.2395264
  59.3412131   5.6957860  84.0064506  59.8166253   5.8885506  83.1983357
  58.4177697   5.7517046  83.7607890  46.2295638   6.8582027  73.5895584
  45.9841680   5.9544357  73.7875794  46.3991553   6.8599177  72.6475062
  45.4991286   2.5910385  71.0881746  44.8060530   2.6654740  70.4321782
  45.2543037   1.8270728  71.6103263  51.9738411  13.3264980  70.0546263
  51.4012378  13.9455167  69.6016735  52.5471204  13.8764341  70.5886185
  58.0413800   2.5723620  82.2392812  58.9931223   2.6721718  82.2605036
  57.8717251   1.7801888  82.7490896  56.0628180  -0.3420797  82.4252213
  55.4678112  -0.0615784  81.7298701  55.7777877   0.1473104  83.1968954
  55.1935670  13.6102130  71.1854845  56.1266344  13.5447692  71.3887721
  55.1058883  14.4458397  70.7269378  57.8223687  12.9268000  68.1458793
  57.7437319  12.5927864  69.0394551  58.6433354  13.4189768  68.1450265
  60.5201878   5.7929740  81.3535111  60.4878198   4.8545740  81.5394795
  61.1302502   5.8713776  80.6200936  52.3585209   4.6625793  67.3962315
  53.3044314   4.5332001  67.4650733  51.9799454   3.9240454  67.8731744
  60.6696367   2.5840783  81.3993394  60.1535415   1.7999240  81.2123323
  61.5536315   2.2559500  81.5639914  66.3378428   6.8545746  80.4941148
  67.0681817   6.5931035  81.0548851  65.7285374   6.1174468  80.5343216
  64.4193725   4.9953609  81.0915599  63.6926889   4.8609574  80.4832091
  64.0041012   5.3030438  81.8972317  52.2423902   8.7143539  88.8562972
  53.1626911   8.8922138  89.0503019  52.2073485   7.7699584  88.7042672
  50.5428126   2.5875769  67.3317201  49.6359582   2.2908882  67.4079914
  50.8204107   2.2905587  66.4651487  41.4606067   3.9082132  77.7816247
  41.1408851   3.0547440  77.4890621  40.9139495   4.1230710  78.5374214
  45.2385974   6.6244573  81.4985753  45.4571984   7.5561681  81.5173787
  45.6511748   6.2652548  82.2840557  49.3126911  -0.5537296  67.4729180
  50.1746075  -0.2282398  67.7324997  49.4977255  -1.3405800  66.9602246
  41.3294327   7.5285044  79.7509369  40.6357798   7.1138997  79.2379323
  42.0767318   7.5705580  79.1542787  43.2431069   7.4603298  77.6275383
  43.2201757   7.5590985  76.6757267  43.5531706   8.3068448  77.9492550
  45.9018447   9.5179453  81.7421998  46.8561701   9.4863395  81.6751929
  45.7030971   9.0570076  82.5572224  46.4917829   8.0880569  84.3092796
  47.3110718   8.5824647  84.3327633  46.7654637   7.1712537  84.2810363
  56.2484425   0.4791321  73.6720751  55.3610280   0.7640972  73.4540946
  56.6638414   0.3185084  72.8248028  59.5998961   0.5037842  77.3875090
  60.3759352   0.9934294  77.6599707  58.8747096   0.9295896  77.8446960
  44.2568676  15.0599072  78.7592196  44.1223144  14.2999473  78.1930194
  43.8400738  15.7839972  78.2920985  55.3927639  10.2435996  67.7668771
  56.0963489  10.4485998  68.3826427  54.6690288  10.8112758  68.0317855
  56.2225449   5.9945857  73.8871041  56.1660650   6.4514408  73.0478674
  56.7753792   5.2336541  73.7093884  60.0330255   1.7835589  74.7121161
  59.7767189   1.3832224  75.5429368  59.4083123   2.4979383  74.5871300
  64.3442593   4.5231662  77.2192452  63.7842151   4.5924851  77.9924014
  63.7386096   4.3472647  76.4991948  47.4137802  15.9568389  78.9710638
  47.2970186  16.9013822  78.8689329  46.5930248  15.6541951  79.3596438
  57.3014336  10.6818525  69.8167231  58.1359940  10.2499723  69.6344706
  57.1398679  10.5100539  70.7444126  56.9560228   7.1850638  71.1823570
  56.9009032   7.0194910  70.2412014  56.3306284   7.8926671  71.3385760
  54.2706136   9.4899550  90.5077133  55.1397295   9.6640202  90.1463768
  53.7912887  10.3093967  90.3852862  48.4392316  16.6096651  82.1866567
  49.3419563  16.6420261  82.5033062  48.2129686  15.6797102  82.2012903
  50.1945918  15.3627638  78.8476645  49.2441549  15.3629499  78.7341018
  50.4978404  14.6160372  78.3312680  65.9298611  21.1988176  79.9122408
  66.5677021  21.0794923  79.2085748  65.8119454  22.1469020  79.9710360
  62.7388318  21.1515604  79.8483933  62.4006829  21.0356669  78.9604467
  63.6078086  20.7506769  79.8284939  58.5975133  23.0051080  75.8380823
  58.0339998  22.9141017  75.0697111  58.4827528  22.1850985  76.3183316
  63.2208101  22.3050456  85.8070138  63.2096741  21.9103254  84.9350642
  63.3828740  21.5716528  86.4003909  56.1439565  24.5002272  78.6765044
  56.9360857  24.1593097  78.2611343  56.3836215  24.6097247  79.5967197
  64.1774692  26.6722048  71.1495288  63.5262672  27.2576129  70.7629302
  64.9719055  27.2028243  71.2090326  58.1030319  23.7611185  71.5482423
  58.8761195  23.2140172  71.4095299  58.4555718  24.6255435  71.7596884
  59.9415362  25.0887568  84.7549322  59.6505228  25.9933198  84.6395988
  60.5772346  25.1304095  85.4693392  60.8671569  22.4664416  81.3450682
  61.4635141  22.2420438  80.6307645  60.9246540  21.7249162  81.9476130
  60.4396597  19.9203851  69.1800873  60.6922118  19.3985373  68.4184336
  59.5021156  19.7569997  69.2827556  65.4839880  18.9239630  76.9875616
  66.2702969  18.5059053  76.6366033  65.7478584  19.8285722  77.1557264
  65.6549957  24.3612480  71.6864273  65.0195790  24.4347107  72.3985177
  65.3247364  24.9506079  71.0083352  70.8848307  18.8614863  77.8908594
  71.6173479  18.2914080  78.1246424  70.1287663  18.4736463  78.3315100
  60.1592886  21.8231957  71.3825248  60.0429144  21.1476861  72.0506332
  60.2695146  21.3364331  70.5657401  62.5024427  21.2842104  75.0871937
  62.1382634  20.7572725  75.7984858  63.3591543  20.8940574  74.9138422
  68.4073727  12.5736437  82.3503203  68.0757052  13.4431848  82.1264418
  67.8119341  12.2572721  83.0297233  62.1429914  16.3132004  70.0833285
  62.3104316  17.1812241  70.4503756  61.9527083  16.4759286  69.1594575
  64.9005247  24.7748983  81.7499116  64.6005970  25.6774022  81.6414923
  64.5556306  24.5081166  82.6020269  58.3517728  21.2262780  77.7835820
  57.4268225  21.0938994  77.9913512  58.6002141  22.0056999  78.2805763
  68.3002391  17.2931523  79.4296553  67.3919268  17.2246932  79.1355314
  68.2489986  17.7703468  80.2578379  62.1219134  18.7689662  71.0679952
  62.0018760  19.2146712  71.9065432  61.4271723  19.1174979  70.5093490
  55.7126539  20.8696053  78.6179609  55.8418920  21.1230532  79.5319021
  55.0323991  21.4623761  78.2984264  59.8826027  31.5393303  74.7170083
  59.8050056  32.4901129  74.7958564  59.2787670  31.1939176  75.3745010
  62.3743256  18.7121169  87.3731450  61.5976590  19.2715089  87.3634315
  63.0133819  19.1977952  87.8946320  70.1664037  15.4947962  81.2074427
  69.5238417  15.7880495  80.5614222  69.6618966  15.3800882  82.0127624
  67.8204201  19.2411135  71.8960286  68.7322057  19.4738522  71.7207984
  67.3113848  19.8248179  71.3335365  60.6289629  21.5206622  86.9349417
  61.3704313  22.0591666  86.6584241  59.9226614  22.1472911  87.0920969
  66.1044968  23.6635763  85.5321579  66.5128324  23.2218173  84.7876211
  65.3822230  23.0888390  85.7855772  62.4576038  18.6008369  82.9055136
  63.3037234  19.0247783  83.0489785  62.3974676  17.9441994  83.5993699
  66.4273783  24.2236953  79.2873868  65.7982645  24.3882667  78.5849936
  66.0399445  24.6378563  80.0584832  70.3063015  25.1591391  76.6418231
  69.6214053  25.5390293  76.0915265  70.3906864  25.7686718  77.3750179
  65.6075484  16.2612738  84.5636309  65.3636416  17.0154798  84.0270585
  65.8835414  16.6398085  85.3983556  67.5613946  22.8051350  83.2413575
  67.7730842  23.4483110  82.5647956  67.5143695  21.9713667  82.7735505
  65.1640175  15.4169171  80.1450147  64.3024654  15.7150424  80.4366885
  65.1902610  15.6339570  79.2131180  61.9801745  23.9611361  76.5523953
  62.4440090  24.2399064  75.7628575  61.7158543  23.0594806  76.3697043
  58.8725826  23.5082843  79.4903716  59.4427183  23.9370111  78.8521201
  59.4633938  23.2265428  80.1887902  60.9170631  20.0834514  73.3613518
  61.6194674  20.5355557  73.8287444  60.5851259  19.4418333  73.9893411
  59.3650992  18.6746270  87.7364727  58.7349653  19.3562551  87.9700124
  59.2587080  18.5629352  86.7917866  54.6595965  18.3418066  78.6630651
  53.8695019  18.5975595  78.1870762  55.1507212  19.1566404  78.7682692
  68.6759774  25.6823306  81.4135932  69.4977218  25.2803493  81.1318614
  68.6722177  25.5791540  82.3652048  56.6110710  18.7062646  75.6214128
  55.8141874  18.8181340  76.1397624  56.3836302  19.0449298  74.7555019
  62.4416378  25.2307349  83.5696643  62.5060810  25.6927756  84.4054815
  61.7327302  24.6004714  83.6978953  52.9433668  18.5948557  81.0945642
  53.1941706  19.4795567  81.3603218  53.4793216  18.4153158  80.3220734
  76.7665767  22.0262054  77.7620904  76.0129476  21.4569452  77.6064908
  76.9013309  21.9924719  78.7091538  62.1564396  26.8975456  73.4375623
  62.0210070  27.7426992  73.8660471  62.6974208  27.0994734  72.6741557
  58.6431735  12.9767036  90.0989978  58.2498681  12.4233235  90.7737623
  59.4597875  13.2877615  90.4896496  55.6093793  24.4150894  74.0103548
  56.1218313  25.2094145  74.1609113  56.2616506  23.7177185  73.9437150
  57.4188678  27.5316651  76.0926301  57.5955306  28.4534615  75.9047285
  58.2145511  27.2175070  76.5220681  61.5599696  14.3924915  87.6910235
  62.3009410  14.9932068  87.6114697  61.7917619  13.6502553  87.1328277
  56.7041034  19.5781283  85.9688465  56.5894549  18.6766540  86.2695563
  55.8485552  19.8244979  85.6173281  63.7832872  27.5199023  87.5675965
  63.3396726  26.7335401  87.2496870  64.4450085  27.7078173  86.9019856
  58.5419993  29.0494824  82.0936644  59.0927418  28.9211888  81.3213638
  57.7031469  29.3489714  81.7431537  65.8814110  27.8001823  85.5957366
  65.8632585  28.6210704  85.1037636  66.8034030  27.6755898  85.8207508
  62.3387164  25.3145952  86.4380875  62.8715501  24.5534240  86.2080183
  61.8101245  25.0219604  87.1805029  65.5056859  10.4206018  81.9674517
  65.1621128  11.3107660  81.8913627  65.8735822  10.2307676  81.1044102
  53.5742710  22.7439549  74.7863119  54.4117932  23.1536557  74.5696826
  53.7520977  21.8038991  74.7563313  65.4707142  20.4114629  70.4746952
  64.9553765  21.1819234  70.7135339  65.1984450  19.7379766  71.0980013
  63.0554253  15.2564330  75.5332190  62.1995849  14.8671181  75.3537829
  63.4681205  15.3356291  74.6731976  64.5853399  12.7910673  79.9323750
  64.0818195  12.7540809  79.1191555  64.8784006  13.7003416  79.9920406
  60.8296285  12.8749403  78.9389932  61.6949282  12.6792212  78.5795821
  60.8973794  12.6459755  79.8659288  70.4441416  23.1646984  72.4100125
  69.6670859  22.8258144  71.9655287  71.1232897  23.1699607  71.7355090
  65.2593445  18.2841721  72.3006733  64.9543581  18.5987871  73.1516876
  66.2123887  18.3623141  72.3434066  63.7039877  24.4431945  73.9499687
  63.1761238  23.7084704  73.6372924  63.2027380  25.2206621  73.7039655
  68.6832723  22.6380965  79.0666733  68.0256397  23.3280227  79.1546862
  69.4873122  23.0277397  79.4100720  58.4358604  15.1051611  76.3106298
  59.0102356  14.8826793  75.5779491  59.0229587  15.1740306  77.0634900
  67.4938182  20.9925338  77.1170675  68.0070063  21.6255330  77.6192385
  68.1439406  20.3926533  76.7514035  58.7628192  17.1356072  70.3302184
  57.9265504  17.4730759  70.6511458  58.6232961  17.0005052  69.3929321
  60.7381272  11.9792860  75.0381368  60.0845684  11.6641877  74.4137983
  60.6961746  11.3568600  75.7641191  61.8492477  22.2612155  66.9534660
  60.9419539  22.0301409  67.1525809  62.3463509  21.4649774  67.1408641
  64.7560556  30.9709662  69.8731346  64.0822255  31.2741359  70.4816304
  65.1426378  31.7738743  69.5236803  63.9719013  18.4674794  79.3629015
  63.0541574  18.6889741  79.2050703  64.3879156  18.5421104  78.5040723
  64.7554060  19.8666209  74.4931696  65.5025879  20.3787606  74.1838818
  65.0245650  19.5450262  75.3536089  63.0280710  22.3624750  71.4758650
  62.1191930  22.0783783  71.5731120  63.0575794  22.7823828  70.6161957
  68.2599978  25.9731339  75.2449818  67.8062305  25.1322249  75.3015008
  67.6293945  26.6092738  75.5824598  67.2032897  16.9023325  76.4750485
  66.4655654  16.3900712  76.8060728  67.4559671  16.4623707  75.6633762
  66.7032917  27.8107836  76.1799636  66.9955891  28.3712893  75.4612001
  67.2131538  28.1036397  76.9352795  67.3044525   9.6799577  77.0692254
  67.6103402   8.8196941  76.7818169  68.0297130  10.2717198  76.8691248
  53.5968881  20.0830264  75.4573852  53.3993281  19.4899625  74.7324919
  53.0415545  19.7782474  76.1749791  61.5765604  19.9753371  77.5768445
  61.6314214  19.0227207  77.5010922  60.7656807  20.1312810  78.0609744
  62.7256798  23.9033494  68.8146729  62.2876228  23.1869353  68.3552366
  63.4667239  24.1309608  68.2531820  59.5157964  18.5930430  75.3358824
  58.7025830  18.8924601  75.7424016  60.0116959  18.1986119  76.0533306
  61.6666542  28.5888187  77.2693089  61.6242721  28.8149034  76.3401621
  62.5829241  28.3551562  77.4178890  65.1132176  19.0572255  84.1673718
  65.4681564  19.2843728  85.0268184  65.7604307  19.3890632  83.5450973
  70.8429913  22.1790691  74.8723047  70.7047812  22.3692287  73.9444236
  70.4866132  22.9410073  75.3291098  59.0072039  16.1648786  80.9520059
  59.6471418  16.0237545  80.2543022  58.1749570  15.8783299  80.5758661
  70.8699293  24.2467218  79.8834319  71.3035799  24.1542507  80.7317373
  71.5830873  24.2224718  79.2454335  59.7832343  25.4651216  77.0655052
  60.5772942  24.9701536  76.8637627  59.0724035  24.9369079  76.7022757
  64.6027188  27.8469312  81.4167419  64.6564210  28.4160248  82.1845135
  63.7341969  28.0171197  81.0521456  56.0915107  19.6094298  73.1414804
  55.1612695  19.5478753  73.3584766  56.1872579  19.0870251  72.3451446
  56.0100656  16.1349111  75.7293046  56.2707473  17.0494444  75.6202206
  56.8317828  15.6673553  75.8789659  57.4825581  17.5486868  82.8991870
  58.1548634  17.3404230  82.2504519  56.6555367  17.3508954  82.4597103
  71.7314842  24.2890918  82.4167204  71.9250732  25.1936729  82.6626479
  71.6315460  23.8298337  83.2505789  63.3851153  14.1748809  84.9157531
  62.7379068  14.8738759  84.8222008  64.1552168  14.6084953  85.2833780
  66.7929951  24.4397661  87.9908085  66.6415457  24.2108213  87.0738168
  66.7834630  25.3968262  88.0039430  63.5615287  22.0129574  82.9754351
  64.4907347  22.1640733  82.8023318  63.1406317  22.1013595  82.1202998
  62.3603619  26.0380238  80.7452889  62.2214705  25.6699023  81.6178827
  61.5718215  26.5527878  80.5736846  62.9551771  31.1389335  72.0878425
  63.1303527  30.6677378  72.9024048  62.2684559  31.7655101  72.3159686
  63.9108834  25.4161841  78.1341726  63.5758667  25.3762611  79.0299376
  63.4112780  24.7506557  77.6612137  57.8853078  20.8229471  83.6594308
  57.7472876  20.0909710  84.2605847  58.7958002  20.7338371  83.3778495
  66.8468026  22.7617875  68.4078786  66.2297196  22.0364703  68.3111839
  66.3784514  23.5227236  68.0645860  60.5135379  20.5349430  83.1477987
  61.2234997  19.8942622  83.1064606  60.4704687  20.7862325  84.0704168
  68.5022158  27.4716784  86.0684566  68.4434704  26.7876004  85.4015150
  68.9041676  28.2135774  85.6165192  59.2264313  17.5214648  84.9673627
  58.6901670  17.0705387  85.6195223  58.6381021  17.6560557  84.2244091
  57.5212856  34.2878697  78.8618285  57.7609455  34.9197222  79.5397304
  56.6782053  33.9366737  79.1483645  58.6366572  16.9803300  67.5300090
  57.7596038  16.8592100  67.1662337  59.1124325  16.1889378  67.2778979
  68.5039565  25.4356368  84.2998546  67.6166344  25.0982289  84.4224945
  69.0738116  24.7039399  84.5367312  50.1568712  21.7680459  77.6241598
  50.8439752  21.4542189  77.0362613  50.0016841  22.6721824  77.3508849
  54.9603434  16.6570656  82.0526621  54.8761623  16.0496325  81.3177031
  54.1386140  17.1479674  82.0536118  62.0340718  30.0957820  81.2659789
  61.9610890  30.9012791  81.7779094  61.5918111  30.2949786  80.4407811
  61.8230498  29.3329590  74.7762611  61.0398020  29.8751270  74.8700835
  62.5223243  29.8503570  75.1756852  65.1327148  15.1424219  77.4196816
  65.6295847  14.3894182  77.0997887  64.3614129  15.1788536  76.8540026
  72.9856905  20.8464585  79.0615108  72.9746782  21.7289300  78.6909041
  72.1174285  20.4936136  78.8669645  64.4939402  29.9944654  83.4217948
  65.2067374  30.6292119  83.3493849  64.0029430  30.0908520  82.6057950
  66.2156929  23.8995907  74.9935240  65.2813207  24.0197369  74.8239944
  66.3933597  22.9968373  74.7295250  61.7162117  17.2841602  77.1468501
  61.3459904  16.7312643  77.8349406  62.2121209  16.6799736  76.5943501
  69.6029480  19.7413226  75.5285274  70.0689932  20.5741217  75.4545577
  70.0536980  19.2758207  76.2330532  59.5451315  27.7439097  84.2423519
  60.2460775  28.3775580  84.3952913  59.0746430  28.0853829  83.4819158
  67.6705711  26.0857047  72.5271426  67.9465555  25.9713642  73.4365300
  66.8010210  25.6874532  72.4883599  67.5746143  12.1093813  79.5676175
  66.6609222  12.3398040  79.7358382  68.0039244  12.1932257  80.4190208
  67.3452601  20.2983705  82.0676069  66.6924051  20.5459612  81.4128522
  67.7232981  19.4847843  81.7338546  64.3059775  30.3343398  76.1704240
  64.4882170  29.5165054  76.6331992  65.1292761  30.5511090  75.7329129
  64.6401941  29.2611583  73.4319288  65.1689707  28.7504038  72.8189450
  64.9030160  28.9454113  74.2964821  63.3940174  21.0403516  88.5542106
  62.7180811  20.9397645  89.2244482  64.2167808  20.8842730  89.0178104
  55.1419033  27.2775452  81.1754622  55.7272470  26.5319140  81.3082526
  54.9443872  27.5879409  82.0591285  57.9957689  30.3126700  76.1917064
  57.3268064  30.7972827  75.7081104  57.8570558  30.5595920  77.1060442
  49.7336688  19.8481053  79.8959065  49.7720788  19.3144643  80.6896183
  49.2276981  19.3216258  79.2770042  62.1362957  32.3470443  82.7899722
  62.6881265  32.5102065  83.5548808  62.4769151  32.9374881  82.1179747
  57.1127450  14.6945593  83.3921607  57.1768777  15.5560424  82.9799005
  57.0494571  14.0819595  82.6593966  56.5879723  16.7668726  87.0394641
  57.2151762  16.3845803  87.6532166  55.7307642  16.5482928  87.4050334
  66.9873831  27.1731701  88.6448377  67.5313735  27.7861659  88.1503332
  66.4060676  27.7311279  89.1615390  53.3645266  18.5745155  72.9712996
  53.6598707  17.6655833  72.9180050  52.4633301  18.5532894  72.6493998
  65.2731344  30.2952419  79.7763404  65.1482484  29.4942159  79.2674350
  65.9310435  30.7898612  79.2877374  56.8939513  16.6501151  78.9540545
  56.1726098  17.2637119  78.8148018  57.6832768  17.1858916  78.8757191
  67.3366253  28.0961439  81.4042955  66.3896588  27.9766790  81.3321281
  67.6849026  27.2083937  81.4869216  59.6965826  13.9855578  85.2281196
  60.2200228  14.2317874  85.9907506  59.4778159  14.8175613  84.8084334
  55.0933107  16.2559252  73.0952321  54.7645813  15.3756631  72.9127427
  55.4472478  16.2006921  73.9828710  64.3412686  27.8914155  77.6047307
  64.1937648  26.9630863  77.7854877  65.1666180  27.9134246  77.1204382
  58.2074930  16.5432222  73.4627799  58.5471003  17.0718143  72.7406407
  58.6547051  16.8812628  74.2386365  67.9446808  28.7142714  78.6912180
  68.8693355  28.5085575  78.5536631  67.7762111  28.4659115  79.6001521
  60.9018371  14.9269273  82.9130867  60.5615192  14.1277086  83.3151547
  60.1957377  15.2270984  82.3407700  61.5534843  12.0118585  81.3658190
  62.3760912  11.5379064  81.2437080  61.7972907  12.7909069  81.8656876
  60.1943077  15.0406844  71.6621092  60.9151440  15.4188097  71.1584809
  59.5708382  15.7595721  71.7656070  64.3374200  15.7451993  72.5979424
  64.5537815  16.6276631  72.2968252  63.8568268  15.3538206  71.8685066
  59.0773422  18.7037706  79.1750169  58.9318002  19.0178009  80.0674450
  58.5998625  19.3222606  78.6221067  60.9369805  15.6940254  79.2231058
  60.9231373  14.7981347  78.8863356  61.6542233  15.7010918  79.8569344
  62.7895935  16.1277594  81.2684186  62.5313713  17.0494665  81.2668516
  62.2580976  15.7308029  81.9584650  67.7342124  29.2328381  74.0474271
  67.9079002  28.6674804  73.2948123  68.2271015  30.0329276  73.8653761
  53.5519084  21.2443050  82.1137830  53.0072552  22.0202858  82.2458104
  54.4298434  21.5913855  81.9556951  60.3406701  14.5754634  74.4918628
  60.4622612  13.6471280  74.6909516  60.0508743  14.5893320  73.5796944
  63.2097891  12.2609545  77.6285348  63.2319588  12.3248878  76.6737328
  63.6265950  11.4214053  77.8225854  73.5881515  21.9964804  75.6664571
  74.0312661  21.2472129  75.2683694  72.7108026  21.9874941  75.2838303
  68.7217297  28.5495146  71.1471169  69.4168201  29.1701838  71.3658484
  69.0640447  27.6990497  71.4223547  54.3385106  20.3712947  85.0067987
  53.5966842  20.5195582  85.5932617  54.0177850  20.6321212  84.1434736
  70.6208720  25.9994851  72.6758500  71.1460044  26.3382124  71.9507820
  70.5331072  25.0641867  72.4921635  62.2828768  29.9128925  84.8048377
  62.5915895  29.6678072  85.6771076  63.0804250  30.1175563  84.3167247
  62.3049380  32.0666835  77.0353753  61.8654371  31.5743213  77.7286610
  63.0557497  31.5239802  76.7945828  54.7841719  28.2578375  77.0378381
  55.6099739  27.9582147  76.6577025  54.4335771  27.4885998  77.4868170
  59.7523253  27.6104844  79.1076055  59.1303262  26.9475549  78.8078283
  60.4228120  27.6365976  78.4249703  52.9850325  26.1764702  77.9967315
  52.1482233  25.7486876  77.8151316  52.9573970  26.3697145  78.9338106
  59.8247780  16.0886632  88.7008561  59.8735936  16.9648754  88.3186331
  60.3670294  15.5464025  88.1280204  70.3102626  26.6327755  87.9809698
  69.5198169  26.6151894  87.4414197  70.0735980  27.1716049  88.7358735
  70.4300501  23.4820221  85.2942427  70.4798506  23.3170229  86.2357949
  70.3214424  22.6147480  84.9040307  59.3136760  26.1608767  72.5834515
  59.4624880  26.8444231  71.9301188  60.1203203  26.1413857  73.0983971
  67.7204263  19.4651149  86.6101733  68.6214126  19.3257614  86.3185731
  67.7952238  19.6305604  87.5499911  62.0547069  16.8418004  85.4554920
  61.1850378  17.1351570  85.1837508  62.2906549  17.4258449  86.1762183
  71.9318698  25.9017163  85.5384448  71.6403506  26.2647143  86.3747909
  71.3190829  25.1884171  85.3597780  73.1314380  23.4670043  78.0587018
  73.9661271  23.9059847  78.2224579  73.2673509  22.9908696  77.2395264
  70.1805886  21.0249777  84.0064506  70.6560008  21.2177424  83.1983357
  69.2571451  21.0808963  83.7607890  57.0689393  22.1873945  73.5895584
  56.8235434  21.2836275  73.7875794  57.2385307  22.1891095  72.6475062
  64.7586102  13.0597621  82.9720340  65.2768046  13.7958648  82.6466829
  64.4041235  13.3661614  83.8067099  56.3385040  17.9202302  71.0881746
  55.6454285  17.9946657  70.4321782  56.0936792  17.1562646  71.6103263
  65.0098697   9.4797904  78.4921237  65.2900450   8.8121093  79.1181663
  65.7949303   9.6726999  77.9795900  62.8132165  28.6556897  70.0546263
  62.2406132  29.2747085  69.6016735  63.3864959  29.2056259  70.5886185
  68.8807555  17.9015538  82.2392812  69.8324978  18.0013635  82.2605036
  68.7111005  17.1093806  82.7490896  66.9021934  14.9871121  82.4252213
  66.3071866  15.2676133  81.7298701  66.6171631  15.4765022  83.1968954
  66.0329425  28.9394048  71.1854845  66.9660098  28.8739609  71.3887721
  65.9452638  29.7750314  70.7269378  68.6617442  28.2559918  68.1458793
  68.5831073  27.9219782  69.0394551  69.4827108  28.7481686  68.1450265
  71.3595633  21.1221657  81.3535111  71.3271953  20.1837658  81.5394795
  71.9696256  21.2005694  80.6200936  63.1978964  19.9917710  67.3962315
  64.1438068  19.8623918  67.4650733  62.8193209  19.2532372  67.8731744
  71.5090121  17.9132701  81.3993394  70.9929170  17.1291157  81.2123323
  72.3930070  17.5851417  81.5639914  69.1700848  11.6573716  77.3589207
  68.9725669  11.3488804  78.2432539  69.7800554  12.3835355  77.4887137
  77.1772183  22.1837664  80.4941148  77.9075571  21.9222952  81.0548851
  76.5679128  21.4466386  80.5343216  75.2587480  20.3245527  81.0915599
  74.5320643  20.1901492  80.4832091  74.8434767  20.6322355  81.8972317
  63.0817656  24.0435456  88.8562972  64.0020666  24.2214055  89.0503019
  63.0467239  23.0991502  88.7042672  61.3821881  17.9167687  67.3317201
  60.4753336  17.6200799  67.4079914  61.6597862  17.6197505  66.4651487
  52.2999821  19.2374050  77.7816247  51.9802605  18.3839358  77.4890621
  51.7533249  19.4522628  78.5374214  56.0779729  21.9536491  81.4985753
  56.2965738  22.8853599  81.5173787  56.4905502  21.5944465  82.2840557
  62.9983946  12.4604576  73.4861442  62.1884675  12.1151661  73.8616688
  63.6868363  12.1512120  74.0749053  64.9274495  11.5382623  75.1085738
  65.4805533  11.9578077  75.7675762  65.1644581  10.6118371  75.1508695
  60.9507594  17.5269697  90.8888502  60.8504321  18.4764054  90.8200594
  60.7329136  17.1987936  90.0164572  60.1520665  14.7754622  67.4729180
  61.0139829  15.1009520  67.7324997  60.3371009  13.9886118  66.9602246
  52.1688081  22.8576961  79.7509369  51.4751553  22.4430914  79.2379323
  52.9161072  22.8997498  79.1542787  68.3053302  13.6483148  74.6164403
  67.7251971  14.3067952  74.2342455  68.0389234  12.8260493  74.2051820
  66.7556868  13.0488206  76.8185723  67.2556647  13.1604740  76.0100042
  67.3992476  12.7449259  77.4586532  60.8138864  20.9566836  89.7053564
  60.3305946  21.7567196  89.9117453  60.8999803  20.9674780  88.7521008
  54.0824824  22.7895215  77.6275383  54.0595512  22.8882903  76.6757267
  54.3925460  23.6360366  77.9492550  56.7412201  24.8471370  81.7421998
  57.6955455  24.8155313  81.6751929  56.5424725  24.3861994  82.5572224
  57.3311584  23.4172486  84.3092796  58.1504473  23.9116565  84.3327633
  57.6048391  22.5004454  84.2810363  67.0878180  15.8083239  73.6720751
  66.2004035  16.0932889  73.4540946  67.5032169  15.6477002  72.8248028
  70.4392716  15.8329760  77.3875090  71.2153106  16.3226212  77.6599707
  69.7140850  16.2587814  77.8446960  72.8765275  16.5457379  78.4449031
  73.4709765  16.3053115  77.7342339  72.9491858  15.8264509  79.0722567
  55.0962430  30.3890990  78.7592196  54.9616898  29.6291391  78.1930194
  54.6794493  31.1131890  78.2920985  66.2321393  25.5727913  67.7668771
  66.9357243  25.7777916  68.3826427  65.5084042  26.1404675  68.0317855
  67.0619204  21.3237775  73.8871041  67.0054405  21.7806326  73.0478674
  67.6147546  20.5628459  73.7093884  70.8724009  17.1127506  74.7121161
  70.6160944  16.7124142  75.5429368  70.2476878  17.8271300  74.5871300
  75.1836347  19.8523580  77.2192452  74.6235905  19.9216769  77.9924014
  74.5779851  19.6764564  76.4991948  58.2531556  31.2860307  78.9710638
  58.1363940  32.2305739  78.8689329  57.4324002  30.9833868  79.3596438
  68.1408091  26.0110443  69.8167231  68.9753695  25.5791641  69.6344706
  67.9792434  25.8392456  70.7444126  67.7953983  22.5142556  71.1823570
  67.7402787  22.3486827  70.2412014  67.1700038  23.2218589  71.3385760
  52.5846498  17.7510620  85.0084993  53.2305361  17.2409574  85.4972218
  52.3763649  18.4879302  85.5828418  65.1099890  24.8191468  90.5077133
  65.9791050  24.9932120  90.1463768  64.6306642  25.6385885  90.3852862
  61.1050108  12.0150665  70.7608889  61.0928778  12.9592505  70.9177160
  61.9973530  11.8320810  70.4668350  59.2786070  31.9388569  82.1866567
  60.1813317  31.9712179  82.5033062  59.0523440  31.0089020  82.2012903
  61.0339672  30.6919555  78.8476645  60.0835303  30.6921417  78.7341018
  61.3372158  29.9452290  78.3312680  64.9202228   8.6093441  75.0154826
  64.1534624   8.0551928  75.1611508  65.3312933   8.6815310  75.8768977
  56.9243989  14.8978237  89.1060007  57.7875450  14.5415042  89.3163331
  56.3509400  14.5592132  89.7935411  76.7692366  36.5280094  79.9122408
  77.4070776  36.4086841  79.2085748  76.6513209  37.4760938  79.9710360
  73.5782072  36.4807522  79.8483933  73.2400584  36.3648586  78.9604467
  74.4471840  36.0798687  79.8284939  69.4368888  38.3342998  75.8380823
  68.8733753  38.2432935  75.0697111  69.3221283  37.5142903  76.3183316
  74.0601855  37.6342373  85.8070138  74.0490496  37.2395172  84.9350642
  74.2222495  36.9008446  86.4003909  66.9833320  39.8294190  78.6765044
  67.7754612  39.4885014  78.2611343  67.2229970  39.9389165  79.5967197
  75.0168446  42.0013966  71.1495288  74.3656426  42.5868046  70.7629302
  75.8112809  42.5320161  71.2090326  68.9424074  39.0903103  71.5482423
  69.7154950  38.5432090  71.4095299  69.2949473  39.9547352  71.7596884
  70.7809116  40.4179485  84.7549322  70.4898982  41.3225116  84.6395988
  71.4166101  40.4596013  85.4693392  71.7065323  37.7956334  81.3450682
  72.3028895  37.5712356  80.6307645  71.7640295  37.0541079  81.9476130
  71.2790351  35.2495769  69.1800873  71.5315872  34.7277290  68.4184336
  70.3414911  35.0861915  69.2827556  76.3233634  34.2531547  76.9875616
  77.1096724  33.8350971  76.6366033  76.5872339  35.1577640  77.1557264
  76.4943712  39.6904398  71.6864273  75.8589545  39.7639024  72.3985177
  76.1641118  40.2797997  71.0083352  81.7242061  34.1906781  77.8908594
  82.4567233  33.6205997  78.1246424  80.9681417  33.8028381  78.3315100
  70.9986640  37.1523875  71.3825248  70.8822898  36.4768778  72.0506332
  71.1088900  36.6656249  70.5657401  73.3418181  36.6134022  75.0871937
  72.9776388  36.0864643  75.7984858  74.1985297  36.2232491  74.9138422
  79.2467482  27.9028355  82.3503203  78.9150807  28.7723766  82.1264418
  78.6513095  27.5864639  83.0297233  72.9823668  31.6423922  70.0833285
  73.1498070  32.5104158  70.4503756  72.7920837  31.8051204  69.1594575
  75.7399001  40.1040901  81.7499116  75.4399724  41.0065940  81.6414923
  75.3950061  39.8373084  82.6020269  69.1911483  36.5554698  77.7835820
  68.2661979  36.4230912  77.9913512  69.4395896  37.3348917  78.2805763
  79.1396145  32.6223441  79.4296553  78.2313022  32.5538849  79.1355314
  79.0883741  33.0995386  80.2578379  72.9612889  34.0981579  71.0679952
  72.8412514  34.5438630  71.9065432  72.2665477  34.4466897  70.5093490
  66.5520294  36.1987971  78.6179609  66.6812675  36.4522450  79.5319021
  65.8717745  36.7915679  78.2984264  70.7219781  46.8685221  74.7170083
  70.6443811  47.8193046  74.7958564  70.1181425  46.5231094  75.3745010
  73.2137011  34.0413087  87.3731450  72.4370345  34.6007007  87.3634315
  73.8527574  34.5269870  87.8946320  81.0057791  30.8239879  81.2074427
  80.3632172  31.1172413  80.5614222  80.5012720  30.7092800  82.0127624
  78.6597955  34.5703053  71.8960286  79.5715811  34.8030439  71.7207984
  78.1507602  35.1540097  71.3335365  71.4683383  36.8498540  86.9349417
  72.2098068  37.3883584  86.6584241  70.7620369  37.4764829  87.0920969
  76.9438723  38.9927680  85.5321579  77.3522079  38.5510091  84.7876211
  76.2215984  38.4180308  85.7855772  73.2969793  33.9300287  82.9055136
  74.1430988  34.3539701  83.0489785  73.2368431  33.2733911  83.5993699
  77.2667537  39.5528871  79.2873868  76.6376400  39.7174585  78.5849936
  76.8793200  39.9670481  80.0584832  81.1456769  40.4883309  76.6418231
  80.4607808  40.8682210  76.0915265  81.2300619  41.0978635  77.3750179
  76.4469238  31.5904655  84.5636309  76.2030170  32.3446716  84.0270585
  76.7229169  31.9690003  85.3983556  78.4007701  38.1343268  83.2413575
  78.6124596  38.7775028  82.5647956  78.3537449  37.3005584  82.7735505
  76.0033930  30.7461089  80.1450147  75.1418409  31.0442342  80.4366885
  76.0296365  30.9631487  79.2131180  72.8195499  39.2903279  76.5523953
  73.2833845  39.5690982  75.7628575  72.5552297  38.3886724  76.3697043
  69.7119580  38.8374761  79.4903716  70.2820937  39.2662029  78.8521201
  70.3027692  38.5557345  80.1887902  71.7564385  35.4126431  73.3613518
  72.4588429  35.8647475  73.8287444  71.4245014  34.7710250  73.9893411
  70.2044747  34.0038188  87.7364727  69.5743407  34.6854469  87.9700124
  70.0980835  33.8921270  86.7917866  65.4989719  33.6709984  78.6630651
  64.7088773  33.9267513  78.1870762  65.9900967  34.4858322  78.7682692
  79.5153529  41.0115223  81.4135932  80.3370973  40.6095411  81.1318614
  79.5115932  40.9083457  82.3652048  67.4504465  34.0354563  75.6214128
  66.6535628  34.1473258  76.1397624  67.2230057  34.3741216  74.7555019
  73.2810132  40.5599267  83.5696643  73.3454565  41.0219674  84.4054815
  72.5721056  39.9296632  83.6978953  63.7827422  33.9240475  81.0945642
  64.0335461  34.8087484  81.3603218  64.3186971  33.7445076  80.3220734
  87.6059522  37.3553972  77.7620904  86.8523230  36.7861370  77.6064908
  87.7407063  37.3216636  78.7091538  72.9958150  42.2267374  73.4375623
  72.8603825  43.0718910  73.8660471  73.5367963  42.4286652  72.6741557
  69.4825490  28.3058954  90.0989978  69.0892435  27.7525152  90.7737623
  70.2991630  28.6169532  90.4896496  66.4487547  39.7442812  74.0103548
  66.9612068  40.5386062  74.1609113  67.1010260  39.0469103  73.9437150
  68.2582432  42.8608568  76.0926301  68.4349060  43.7826533  75.9047285
  69.0539266  42.5466988  76.5220681  72.3993451  29.7216833  87.6910235
  73.1403164  30.3223986  87.6114697  72.6311373  28.9794471  87.1328277
  67.5434789  34.9073200  85.9688465  67.4288304  34.0058458  86.2695563
  66.6879306  35.1536897  85.6173281  74.6226626  42.8490941  87.5675965
  74.1790481  42.0627319  87.2496870  75.2843840  43.0370091  86.9019856
  69.3813748  44.3786742  82.0936644  69.9321173  44.2503806  81.3213638
  68.5425223  44.6781631  81.7431537  76.7207864  43.1293741  85.5957366
  76.7026340  43.9502622  85.1037636  77.6427785  43.0047816  85.8207508
  73.1780919  40.6437870  86.4380875  73.7109255  39.8826158  86.2080183
  72.6495000  40.3511522  87.1805029  76.3450614  25.7497936  81.9674517
  76.0014883  26.6399578  81.8913627  76.7129576  25.5599594  81.1044102
  64.4136464  38.0731466  74.7863119  65.2511686  38.4828475  74.5696826
  64.5914732  37.1330909  74.7563313  76.3100896  35.7406547  70.4746952
  75.7947520  36.5111152  70.7135339  76.0378205  35.0671683  71.0980013
  73.8948007  30.5856248  75.5332190  73.0389604  30.1963098  75.3537829
  74.3074959  30.6648209  74.6731976  75.4247154  28.1202591  79.9323750
  74.9211950  28.0832726  79.1191555  75.7177761  29.0295334  79.9920406
  71.6690040  28.2041321  78.9389932  72.5343037  28.0084130  78.5795821
  71.7367549  27.9751673  79.8659288  81.2835170  38.4938902  72.4100125
  80.5064613  38.1550061  71.9655287  81.9626651  38.4991525  71.7355090
  76.0987199  33.6133639  72.3006733  75.7937335  33.9279788  73.1516876
  77.0517642  33.6915059  72.3434066  74.5433631  39.7723862  73.9499687
  74.0154993  39.0376622  73.6372924  74.0421134  40.5498539  73.7039655
  79.5226477  37.9672883  79.0666733  78.8650152  38.6572144  79.1546862
  80.3266877  38.3569315  79.4100720  69.2752359  30.4343529  76.3106298
  69.8496111  30.2118710  75.5779491  69.8623341  30.5032223  77.0634900
  78.3331936  36.3217256  77.1170675  78.8463818  36.9547247  77.6192385
  78.9833160  35.7218451  76.7514035  69.6021946  32.4647990  70.3302184
  68.7659258  32.8022676  70.6511458  69.4626716  32.3296970  69.3929321
  71.5775027  27.3084778  75.0381368  70.9239439  26.9933795  74.4137983
  71.5355501  26.6860518  75.7641191  72.6886231  37.5904073  66.9534660
  71.7813293  37.3593326  67.1525809  73.1857263  36.7941692  67.1408641
  75.5954310  46.3001580  69.8731346  74.9216009  46.6033277  70.4816304
  75.9820132  47.1030660  69.5236803  74.8112767  33.7966711  79.3629015
  73.8935328  34.0181658  79.2050703  75.2272911  33.8713022  78.5040723
  75.5947815  35.1958127  74.4931696  76.3419634  35.7079524  74.1838818
  75.8639404  34.8742180  75.3536089  73.8674465  37.6916668  71.4758650
  72.9585684  37.4075700  71.5731120  73.8969549  38.1115746  70.6161957
  79.0993732  41.3023257  75.2449818  78.6456059  40.4614167  75.3015008
  78.4687699  41.9384655  75.5824598  78.0426652  32.2315243  76.4750485
  77.3049409  31.7192629  76.8060728  78.2953425  31.7915625  75.6633762
  77.5426672  43.1399754  76.1799636  77.8349646  43.7004811  75.4612001
  78.0525292  43.4328315  76.9352795  78.1438279  25.0091495  77.0692254
  78.4497156  24.1488859  76.7818169  78.8690884  25.6009115  76.8691248
  64.4362635  35.4122182  75.4573852  64.2387035  34.8191542  74.7324919
  63.8809299  35.1074392  76.1749791  72.4159359  35.3045288  77.5768445
  72.4707969  34.3519125  77.5010922  71.6050561  35.4604727  78.0609744
  73.5650553  39.2325411  68.8146729  73.1269983  38.5161270  68.3552366
  74.3060994  39.4601526  68.2531820  70.3551719  33.9222348  75.3358824
  69.5419584  34.2216519  75.7424016  70.8510713  33.5278037  76.0533306
  72.5060297  43.9180105  77.2693089  72.4636476  44.1440951  76.3401621
  73.4222996  43.6843479  77.4178890  75.9525931  34.3864172  84.1673718
  76.3075318  34.6135646  85.0268184  76.5998062  34.7182549  83.5450973
  81.6823668  37.5082608  74.8723047  81.5441566  37.6984204  73.9444236
  81.3259886  38.2701991  75.3291098  69.8465794  31.4940703  80.9520059
  70.4865173  31.3529463  80.2543022  69.0143324  31.2075217  80.5758661
  81.7093047  39.5759135  79.8834319  82.1429554  39.4834424  80.7317373
  82.4224628  39.5516636  79.2454335  70.6226098  40.7943134  77.0655052
  71.4166696  40.2993454  76.8637627  69.9117790  40.2660997  76.7022757
  75.4420942  43.1761229  81.4167419  75.4957964  43.7452166  82.1845135
  74.5735723  43.3463114  81.0521456  66.9308861  34.9386216  73.1414804
  66.0006449  34.8770671  73.3584766  67.0266333  34.4162168  72.3451446
  66.8494410  31.4641028  75.7293046  67.1101227  32.3786362  75.6202206
  67.6711582  30.9965471  75.8789659  68.3219335  32.8778786  82.8991870
  68.9942389  32.6696148  82.2504519  67.4949122  32.6800872  82.4597103
  82.5708597  39.6182836  82.4167204  82.7644487  40.5228646  82.6626479
  82.4709215  39.1590255  83.2505789  74.2244907  29.5040727  84.9157531
  73.5772822  30.2030676  84.8222008  74.9945923  29.9376870  85.2833780
  77.6323705  39.7689579  87.9908085  77.4809212  39.5400130  87.0738168
  77.6228385  40.7260180  88.0039430  74.4009042  37.3421491  82.9754351
  75.3301102  37.4932651  82.8023318  73.9800072  37.4305512  82.1202998
  73.1997374  41.3672156  80.7452889  73.0608459  40.9990940  81.6178827
  72.4111970  41.8819795  80.5736846  73.7945526  46.4681252  72.0878425
  73.9697281  45.9969296  72.9024048  73.1078314  47.0947019  72.3159686
  74.7502589  40.7453759  78.1341726  74.4152421  40.7054529  79.0299376
  74.2506534  40.0798474  77.6612137  68.7246833  36.1521389  83.6594308
  68.5866631  35.4201627  84.2605847  69.6351756  36.0630289  83.3778495
  77.6861780  38.0909793  68.4078786  77.0690951  37.3656621  68.3111839
  77.2178269  38.8519153  68.0645860  71.3529133  35.8641348  83.1477987
  72.0628752  35.2234540  83.1064606  71.3098441  36.1154243  84.0704168
  79.3415912  42.8008701  86.0684566  79.2828458  42.1167921  85.4015150
  79.7435430  43.5427691  85.6165192  70.0658067  32.8506566  84.9673627
  69.5295424  32.3997304  85.6195223  69.4774776  32.9852475  84.2244091
  68.3606611  49.6170615  78.8618285  68.6003209  50.2489139  79.5397304
  67.5175807  49.2658655  79.1483645  69.4760326  32.3095217  67.5300090
  68.5989793  32.1884018  67.1662337  69.9518079  31.5181296  67.2778979
  79.3433319  40.7648285  84.2998546  78.4560098  40.4274207  84.4224945
  79.9131870  40.0331316  84.5367312  60.9962466  37.0972377  77.6241598
  61.6833506  36.7834107  77.0362613  60.8410595  38.0013742  77.3508849
  65.7997189  31.9862574  82.0526621  65.7155377  31.3788243  81.3177031
  64.9779895  32.4771592  82.0536118  72.8734473  45.4249738  81.2659789
  72.8004644  46.2304709  81.7779094  72.4311866  45.6241703  80.4407811
  72.6624252  44.6621508  74.7762611  71.8791774  45.2043188  74.8700835
  73.3616997  45.1795487  75.1756852  75.9720902  30.4716137  77.4196816
  76.4689602  29.7186099  77.0997887  75.2007884  30.5080454  76.8540026
  83.8250660  36.1756503  79.0615108  83.8140536  37.0581218  78.6909041
  82.9568039  35.8228053  78.8669645  75.3333156  45.3236572  83.4217948
  76.0461128  45.9584036  83.3493849  74.8423185  45.4200438  82.6057950
  77.0550683  39.2287824  74.9935240  76.1206962  39.3489287  74.8239944
  77.2327352  38.3260291  74.7295250  72.5555871  32.6133520  77.1468501
  72.1853659  32.0604560  77.8349406  73.0514964  32.0091654  76.5943501
  80.4423234  35.0705144  75.5285274  80.9083687  35.9033135  75.4545577
  80.8930735  34.6050125  76.2330532  70.3845070  43.0731015  84.2423519
  71.0854529  43.7067498  84.3952913  69.9140185  43.4145747  83.4819158
  78.5099466  41.4148965  72.5271426  78.7859309  41.3005559  73.4365300
  77.6403964  41.0166450  72.4883599  78.4139897  27.4385731  79.5676175
  77.5002977  27.6689957  79.7358382  78.8432999  27.5224175  80.4190208
  78.1846356  35.6275623  82.0676069  77.5317806  35.8751530  81.4128522
  78.5626736  34.8139761  81.7338546  75.1453530  45.6635316  76.1704240
  75.3275924  44.8456972  76.6331992  75.9686516  45.8803008  75.7329129
  75.4795695  44.5903501  73.4319288  76.0083461  44.0795955  72.8189450
  75.7423915  44.2746031  74.2964821  74.2333929  36.3695434  88.5542106
  73.5574566  36.2689563  89.2244482  75.0561563  36.2134647  89.0178104
  65.9812788  42.6067370  81.1754622  66.5666225  41.8611058  81.3082526
  65.7837626  42.9171327  82.0591285  68.8351443  45.6418617  76.1917064
  68.1661818  46.1264745  75.7081104  68.6964313  45.8887838  77.1060442
  60.5730443  35.1772970  79.8959065  60.6114542  34.6436561  80.6896183
  60.0670735  34.6508176  79.2770042  72.9756712  47.6762361  82.7899722
  73.5275020  47.8393983  83.5548808  73.3162905  48.2666799  82.1179747
  67.9521205  30.0237511  83.3921607  68.0162531  30.8852342  82.9799005
  67.8888325  29.4111512  82.6593966  67.4273477  32.0960643  87.0394641
  68.0545516  31.7137721  87.6532166  66.5701396  31.8774845  87.4050334
  77.8267586  42.5023619  88.6448377  78.3707490  43.1153577  88.1503332
  77.2454431  43.0603197  89.1615390  64.2039020  33.9037072  72.9712996
  64.4992461  32.9947751  72.9180050  63.3027056  33.8824812  72.6493998
  76.1125099  45.6244337  79.7763404  75.9876238  44.8234076  79.2674350
  76.7704190  46.1190530  79.2877374  67.7333267  31.9793069  78.9540545
  67.0119853  32.5929037  78.8148018  68.5226523  32.5150834  78.8757191
  78.1760007  43.4253357  81.4042955  77.2290343  43.3058708  81.3321281
  78.5242780  42.5375855  81.4869216  70.5359581  29.3147496  85.2281196
  71.0593982  29.5609792  85.9907506  70.3171914  30.1467530  84.8084334
  65.9326862  31.5851170  73.0952321  65.6039568  30.7048549  72.9127427
  66.2866232  31.5298839  73.9828710  75.1806441  43.2206073  77.6047307
  75.0331403  42.2922780  77.7854877  76.0059934  43.2426164  77.1204382
  69.0468685  31.8724140  73.4627799  69.3864757  32.4010061  72.7406407
  69.4940805  32.2104546  74.2386365  78.7840562  44.0434632  78.6912180
  79.7087110  43.8377493  78.5536631  78.6155866  43.7951033  79.6001521
  71.7412126  30.2561191  82.9130867  71.4008946  29.4569004  83.3151547
  71.0351132  30.5562901  82.3407700  72.3928597  27.3410503  81.3658190
  73.2154667  26.8670981  81.2437080  72.6366661  28.1200987  81.8656876
  71.0336832  30.3698762  71.6621092  71.7545194  30.7480014  71.1584809
  70.4102136  31.0887638  71.7656070  75.1767955  31.0743910  72.5979424
  75.3931569  31.9568548  72.2968252  74.6962022  30.6830124  71.8685066
  69.9167176  34.0329624  79.1750169  69.7711757  34.3469927  80.0674450
  69.4392380  34.6514524  78.6221067  71.7763559  31.0232172  79.2231058
  71.7625128  30.1273265  78.8863356  72.4935987  31.0302835  79.8569344
  73.6289690  31.4569512  81.2684186  73.3707468  32.3786583  81.2668516
  73.0974730  31.0599946  81.9584650  78.5735879  44.5620299  74.0474271
  78.7472756  43.9966722  73.2948123  79.0664770  45.3621194  73.8653761
  64.3912838  36.5734968  82.1137830  63.8466306  37.3494776  82.2458104
  65.2692188  36.9205773  81.9556951  71.1800455  29.9046552  74.4918628
  71.3016366  28.9763198  74.6909516  70.8902497  29.9185238  73.5796944
  74.0491645  27.5901462  77.6285348  74.0713342  27.6540795  76.6737328
  74.4659704  26.7505971  77.8225854  84.4275270  37.3256722  75.6664571
  84.8706416  36.5764047  75.2683694  83.5501780  37.3166858  75.2838303
  79.5611051  43.8787063  71.1471169  80.2561956  44.4993756  71.3658484
  79.9034201  43.0282415  71.4223547  65.1778860  35.7004864  85.0067987
  64.4360596  35.8487500  85.5932617  64.8571605  35.9613130  84.1434736
  81.4602474  41.3286769  72.6758500  81.9853798  41.6674042  71.9507820
  81.3724827  40.3933784  72.4921635  73.1222523  45.2420843  84.8048377
  73.4309649  44.9969989  85.6771076  73.9198005  45.4467481  84.3167247
  73.1443135  47.3958752  77.0353753  72.7048125  46.9035131  77.7286610
  73.8951252  46.8531720  76.7945828  65.6235474  43.5870293  77.0378381
  66.4493494  43.2874065  76.6577025  65.2729526  42.8177916  77.4868170
  70.5917007  42.9396761  79.1076055  69.9697016  42.2767466  78.8078283
  71.2621874  42.9657893  78.4249703  63.8244079  41.5056620  77.9967315
  62.9875987  41.0778794  77.8151316  63.7967724  41.6989063  78.9338106
  70.6641535  31.4178549  88.7008561  70.7129690  32.2940672  88.3186331
  71.2064049  30.8755942  88.1280204  81.1496380  41.9619673  87.9809698
  80.3591924  41.9443811  87.4414197  80.9129735  42.5007966  88.7358735
  81.2694255  38.8112139  85.2942427  81.3192260  38.6462146  86.2357949
  81.1608179  37.9439398  84.9040307  70.1530514  41.4900685  72.5834515
  70.3018634  42.1736149  71.9301188  70.9596957  41.4705775  73.0983971
  78.5598018  34.7943067  86.6101733  79.4607880  34.6549532  86.3185731
  78.6345992  34.9597522  87.5499911  72.8940823  32.1709922  85.4554920
  72.0244132  32.4643488  85.1837508  73.1300303  32.7550367  86.1762183
  82.7712452  41.2309080  85.5384448  82.4797260  41.5939061  86.3747909
  82.1584583  40.5176089  85.3597780  83.9708134  38.7961960  78.0587018
  84.8055026  39.2351764  78.2224579  84.1067263  38.3200613  77.2395264
  81.0199640  36.3541695  84.0064506  81.4953762  36.5469341  83.1983357
  80.0965206  36.4100881  83.7607890  67.9083147  37.5165862  73.5895584
  67.6629189  36.6128192  73.7875794  68.0779062  37.5183013  72.6475062
  75.5979857  28.3889539  82.9720340  76.1161801  29.1250566  82.6466829
  75.2434990  28.6953532  83.8067099  67.1778795  33.2494220  71.0881746
  66.4848039  33.3238575  70.4321782  66.9330546  32.4854564  71.6103263
  75.8492451  24.8089821  78.4921237  76.1294205  24.1413010  79.1181663
  76.6343058  25.0018917  77.9795900  73.6525920  43.9848815  70.0546263
  73.0799887  44.6039002  69.6016735  74.2258713  44.5348177  70.5886185
  79.7201309  33.2307455  82.2392812  80.6718732  33.3305553  82.2605036
  79.5504760  32.4385724  82.7490896  77.7415689  30.3163038  82.4252213
  77.1465621  30.5968051  81.7298701  77.4565386  30.8056939  83.1968954
  76.8723179  44.2685965  71.1854845  77.8053852  44.2031527  71.3887721
  76.7846392  45.1042232  70.7269378  79.5011196  43.5851836  68.1458793
  79.4224828  43.2511699  69.0394551  80.3220863  44.0773603  68.1450265
  82.1989387  36.4513575  81.3535111  82.1665707  35.5129576  81.5394795
  82.8090011  36.5297612  80.6200936  74.0372718  35.3209628  67.3962315
  74.9831823  35.1915836  67.4650733  73.6586963  34.5824290  67.8731744
  82.3483876  33.2424618  81.3993394  81.8322924  32.4583075  81.2123323
  83.2323824  32.9143335  81.5639914  80.0094603  26.9865634  77.3589207
  79.8119424  26.6780722  78.2432539  80.6194308  27.7127273  77.4887137
  88.0165937  37.5129582  80.4941148  88.7469326  37.2514870  81.0548851
  87.4072883  36.7758304  80.5343216  86.0981234  35.6537444  81.0915599
  85.3714398  35.5193409  80.4832091  85.6828521  35.9614273  81.8972317
  73.9211411  39.3727374  88.8562972  74.8414420  39.5505973  89.0503019
  73.8860994  38.4283419  88.7042672  72.2215635  33.2459604  67.3317201
  71.3147091  32.9492717  67.4079914  72.4991616  32.9489422  66.4651487
  63.1393576  34.5665968  77.7816247  62.8196360  33.7131276  77.4890621
  62.5927004  34.7814546  78.5374214  66.9173483  37.2828409  81.4985753
  67.1359493  38.2145516  81.5173787  67.3299257  36.9236383  82.2840557
  73.8377701  27.7896494  73.4861442  73.0278429  27.4443579  73.8616688
  74.5262118  27.4804038  74.0749053  75.7668249  26.8674541  75.1085738
  76.3199288  27.2869994  75.7675762  76.0038336  25.9410289  75.1508695
  71.7901348  32.8561614  90.8888502  71.6898075  33.8055971  90.8200594
  71.5722890  32.5279853  90.0164572  70.9914420  30.1046539  67.4729180
  71.8533584  30.4301438  67.7324997  71.1764764  29.3178035  66.9602246
  63.0081836  38.1868879  79.7509369  62.3145307  37.7722832  79.2379323
  63.7554827  38.2289416  79.1542787  79.1447056  28.9775066  74.6164403
  78.5645725  29.6359870  74.2342455  78.8782989  28.1552411  74.2051820
  77.5950623  28.3780124  76.8185723  78.0950401  28.4896658  76.0100042
  78.2386231  28.0741176  77.4586532  71.6532619  36.2858753  89.7053564
  71.1699700  37.0859113  89.9117453  71.7393558  36.2966698  88.7521008
  64.9218578  38.1187133  77.6275383  64.8989266  38.2174820  76.6757267
  65.2319215  38.9652284  77.9492550  67.5805956  40.1763288  81.7421998
  68.5349210  40.1447230  81.6751929  67.3818480  39.7153912  82.5572224
  68.1705338  38.7464404  84.3092796  68.9898227  39.2408483  84.3327633
  68.4442146  37.8296372  84.2810363  77.9271934  31.1375156  73.6720751
  77.0397789  31.4224807  73.4540946  78.3425923  30.9768920  72.8248028
  81.2786470  31.1621677  77.3875090  82.0546861  31.6518130  77.6599707
  80.5534605  31.5879731  77.8446960  83.7159029  31.8749297  78.4449031
  84.3103520  31.6345032  77.7342339  83.7885613  31.1556427  79.0722567
  65.9356185  45.7182907  78.7592196  65.8010653  44.9583308  78.1930194
  65.5188247  46.4423807  78.2920985  77.0715148  40.9019831  67.7668771
  77.7750998  41.1069833  68.3826427  76.3477797  41.4696593  68.0317855
  77.9012958  36.6529692  73.8871041  77.8448159  37.1098244  73.0478674
  78.4541301  35.8920377  73.7093884  81.7117764  32.4419424  74.7121161
  81.4554698  32.0416060  75.5429368  81.0870632  33.1563218  74.5871300
  86.0230102  35.1815497  77.2192452  85.4629660  35.2508687  77.9924014
  85.4173605  35.0056482  76.4991948  69.0925311  46.6152224  78.9710638
  68.9757695  47.5597657  78.8689329  68.2717757  46.3125786  79.3596438
  78.9801845  41.3402360  69.8167231  79.8147449  40.9083559  69.6344706
  78.8186188  41.1684374  70.7444126  78.6347737  37.8434473  71.1823570
  78.5796541  37.6778745  70.2412014  78.0093793  38.5510506  71.3385760
  63.4240252  33.0802538  85.0084993  64.0699116  32.5701492  85.4972218
  63.2157403  33.8171220  85.5828418  75.9493645  40.1483385  90.5077133
  76.8184804  40.3224038  90.1463768  75.4700396  40.9677802  90.3852862
  71.9443863  27.3442582  70.7608889  71.9322533  28.2884422  70.9177160
  72.8367285  27.1612728  70.4668350  70.1179825  47.2680486  82.1866567
  71.0207071  47.3004097  82.5033062  69.8917195  46.3380937  82.2012903
  71.8733427  46.0211473  78.8476645  70.9229058  46.0213335  78.7341018
  72.1765913  45.2744207  78.3312680  75.7595982  23.9385359  75.0154826
  74.9928378  23.3843846  75.1611508  76.1706687  24.0107228  75.8768977
  67.7637743  30.2270155  89.1060007  68.6269205  29.8706960  89.3163331
  67.1903154  29.8884050  89.7935411  87.6086120  51.8572011  79.9122408
  88.2464530  51.7378759  79.2085748  87.4906963  52.8052855  79.9710360
  84.4175827  51.8099439  79.8483933  84.0794338  51.6940504  78.9604467
  85.2865595  51.4090604  79.8284939  80.2762642  53.6634916  75.8380823
  79.7127507  53.5724853  75.0697111  80.1615037  52.8434820  76.3183316
  84.8995610  52.9634291  85.8070138  84.8884250  52.5687089  84.9350642
  85.0616249  52.2300364  86.4003909  77.8227074  55.1586107  78.6765044
  78.6148366  54.8176932  78.2611343  78.0623724  55.2681082  79.5967197
  85.8562201  57.3305884  71.1495288  85.2050181  57.9159964  70.7629302
  86.6506564  57.8612078  71.2090326  79.7817828  54.4195021  71.5482423
  80.5548704  53.8724008  71.4095299  80.1343227  55.2839270  71.7596884
  81.6202871  55.7471403  84.7549322  81.3292737  56.6517034  84.6395988
  82.2559855  55.7887931  85.4693392  82.5459078  53.1248251  81.3450682
  83.1422650  52.9004274  80.6307645  82.6034049  52.3832997  81.9476130
  82.1184106  50.5787687  69.1800873  82.3709627  50.0569208  68.4184336
  81.1808665  50.4153832  69.2827556  87.1627389  49.5823465  76.9875616
  87.9490478  49.1642888  76.6366033  87.4266093  50.4869557  77.1557264
  87.3337466  55.0196315  71.6864273  86.6983299  55.0930942  72.3985177
  87.0034873  55.6089914  71.0083352  92.5635816  49.5198698  77.8908594
  93.2960988  48.9497915  78.1246424  91.8075172  49.1320299  78.3315100
  81.8380395  52.4815793  71.3825248  81.7216653  51.8060696  72.0506332
  81.9482655  51.9948167  70.5657401  84.1811936  51.9425940  75.0871937
  83.8170143  51.4156561  75.7984858  85.0379052  51.5524409  74.9138422
  90.0861236  43.2320272  82.3503203  89.7544561  44.1015683  82.1264418
  89.4906850  42.9156556  83.0297233  83.8217423  46.9715840  70.0833285
  83.9891825  47.8396076  70.4503756  83.6314592  47.1343121  69.1594575
  86.5792756  55.4332818  81.7499116  86.2793479  56.3357857  81.6414923
  86.2343815  55.1665002  82.6020269  80.0305237  51.8846615  77.7835820
  79.1055734  51.7522829  77.9913512  80.2789650  52.6640835  78.2805763
  89.9789900  47.9515359  79.4296553  89.0706777  47.8830767  79.1355314
  89.9277495  48.4287304  80.2578379  83.8006643  49.4273497  71.0679952
  83.6806269  49.8730548  71.9065432  83.1059232  49.7758815  70.5093490
  77.3914048  51.5279889  78.6179609  77.5206429  51.7814368  79.5319021
  76.7111500  52.1207597  78.2984264  81.5613536  62.1977139  74.7170083
  81.4837565  63.1484964  74.7958564  80.9575179  61.8523011  75.3745010
  84.0530765  49.3705004  87.3731450  83.2764099  49.9298924  87.3634315
  84.6921328  49.8561787  87.8946320  91.8451546  46.1531797  81.2074427
  91.2025926  46.4464330  80.5614222  91.3406474  46.0384717  82.0127624
  89.4991710  49.8994970  71.8960286  90.4109566  50.1322357  71.7207984
  88.9901357  50.4832014  71.3335365  82.3077138  52.1790458  86.9349417
  83.0491822  52.7175502  86.6584241  81.6014123  52.8056746  87.0920969
  87.7832477  54.3219598  85.5321579  88.1915833  53.8802009  84.7876211
  87.0609739  53.7472226  85.7855772  84.1363547  49.2592205  82.9055136
  84.9824743  49.6831618  83.0489785  84.0762185  48.6025829  83.5993699
  88.1061292  54.8820789  79.2873868  87.4770154  55.0466503  78.5849936
  87.7186954  55.2962398  80.0584832  91.9850524  55.8175227  76.6418231
  91.3001562  56.1974128  76.0915265  92.0694373  56.4270553  77.3750179
  87.2862993  46.9196573  84.5636309  87.0423925  47.6738634  84.0270585
  87.5622923  47.2981921  85.3983556  89.2401455  53.4635186  83.2413575
  89.4518351  54.1066945  82.5647956  89.1931204  52.6297502  82.7735505
  86.8427684  46.0753006  80.1450147  85.9812163  46.3734260  80.4366885
  86.8690119  46.2923405  79.2131180  83.6589254  54.6195197  76.5523953
  84.1227599  54.8982900  75.7628575  83.3946052  53.7178641  76.3697043
  80.5513335  54.1666678  79.4903716  81.1214692  54.5953947  78.8521201
  81.1421447  53.8849263  80.1887902  82.5958140  50.7418349  73.3613518
  83.2982183  51.1939393  73.8287444  82.2638768  50.1002168  73.9893411
  81.0438501  49.3330106  87.7364727  80.4137162  50.0146387  87.9700124
  80.9374589  49.2213187  86.7917866  76.3383474  49.0001902  78.6630651
  75.5482528  49.2559430  78.1870762  76.8294721  49.8150240  78.7682692
  90.3547283  56.3407141  81.4135932  91.1764727  55.9387328  81.1318614
  90.3509686  56.2375375  82.3652048  78.2898219  49.3646481  75.6214128
  77.4929382  49.4765175  76.1397624  78.0623811  49.7033133  74.7555019
  84.1203887  55.8891184  83.5696643  84.1848319  56.3511591  84.4054815
  83.4114811  55.2588549  83.6978953  74.6221177  49.2532392  81.0945642
  74.8729215  50.1379402  81.3603218  75.1580725  49.0736994  80.3220734
  98.4453276  52.6845889  77.7620904  97.6916985  52.1153288  77.6064908
  98.5800818  52.6508554  78.7091538  83.8351904  57.5559292  73.4375623
  83.6997579  58.4010827  73.8660471  84.3761717  57.7578569  72.6741557
  80.3219244  43.6350872  90.0989978  79.9286190  43.0817070  90.7737623
  81.1385384  43.9461450  90.4896496  77.2881302  55.0734730  74.0103548
  77.8005822  55.8677980  74.1609113  77.9404015  54.3761020  73.9437150
  79.0976187  58.1900486  76.0926301  79.2742815  59.1118451  75.9047285
  79.8933020  57.8758905  76.5220681  83.2387205  45.0508751  87.6910235
  83.9796918  45.6515904  87.6114697  83.4705128  44.3086388  87.1328277
  78.3828543  50.2365118  85.9688465  78.2682058  49.3350375  86.2695563
  77.5273061  50.4828815  85.6173281  85.4620381  58.1782858  87.5675965
  85.0184235  57.3919237  87.2496870  86.1237594  58.3662009  86.9019856
  80.2207502  59.7078660  82.0936644  80.7714927  59.5795723  81.3213638
  79.3818978  60.0073549  81.7431537  87.5601619  58.4585658  85.5957366
  87.5420094  59.2794539  85.1037636  88.4821539  58.3339733  85.8207508
  84.0174673  55.9729788  86.4380875  84.5503010  55.2118076  86.2080183
  83.4888754  55.6803439  87.1805029  87.1844368  41.0789854  81.9674517
  86.8408637  41.9691495  81.8913627  87.5523331  40.8891511  81.1044102
  75.2530219  53.4023384  74.7863119  76.0905441  53.8120392  74.5696826
  75.4308486  52.4622826  74.7563313  87.1494651  51.0698465  70.4746952
  86.6341274  51.8403069  70.7135339  86.8771959  50.3963601  71.0980013
  84.7341762  45.9148166  75.5332190  83.8783358  45.5255016  75.3537829
  85.1468714  45.9940126  74.6731976  86.2640908  43.4494509  79.9323750
  85.7605704  43.4124644  79.1191555  86.5571515  44.3587252  79.9920406
  82.5083794  43.5333239  78.9389932  83.3736791  43.3376047  78.5795821
  82.5761303  43.3043590  79.8659288  92.1228925  53.8230819  72.4100125
  91.3458368  53.4841979  71.9655287  92.8020406  53.8283443  71.7355090
  86.9380954  48.9425557  72.3006733  86.6331090  49.2571706  73.1516876
  87.8911396  49.0206977  72.3434066  85.3827386  55.1015780  73.9499687
  84.8548747  54.3668540  73.6372924  84.8814889  55.8790456  73.7039655
  90.3620232  53.2964801  79.0666733  89.7043906  53.9864062  79.1546862
  91.1660631  53.6861233  79.4100720  80.1146113  45.7635446  76.3106298
  80.6889865  45.5410628  75.5779491  80.7017096  45.8324141  77.0634900
  89.1725691  51.6509173  77.1170675  89.6857572  52.2839165  77.6192385
  89.8226915  51.0510369  76.7514035  80.4415701  47.7939907  70.3302184
  79.6053013  48.1314594  70.6511458  80.3020470  47.6588887  69.3929321
  82.4168781  42.6376695  75.0381368  81.7633193  42.3225713  74.4137983
  82.3749255  42.0152436  75.7641191  83.5279986  52.9195990  66.9534660
  82.6207048  52.6885244  67.1525809  84.0251018  52.1233610  67.1408641
  86.4348065  61.6293498  69.8731346  85.7609764  61.9325194  70.4816304
  86.8213887  62.4322578  69.5236803  85.6506521  49.1258629  79.3629015
  84.7329083  49.3473576  79.2050703  86.0666665  49.2004939  78.5040723
  86.4341569  50.5250045  74.4931696  87.1813388  51.0371442  74.1838818
  86.7033159  50.2034097  75.3536089  84.7068219  53.0208585  71.4758650
  83.7979439  52.7367618  71.5731120  84.7363303  53.4407664  70.6161957
  89.9387487  56.6315175  75.2449818  89.4849814  55.7906085  75.3015008
  89.3081454  57.2676573  75.5824598  88.8820406  47.5607161  76.4750485
  88.1443163  47.0484547  76.8060728  89.1347180  47.1207542  75.6633762
  88.3820426  58.4691671  76.1799636  88.6743400  59.0296729  75.4612001
  88.8919047  58.7620232  76.9352795  88.9832034  40.3383413  77.0692254
  89.2890911  39.4780776  76.7818169  89.7084639  40.9301033  76.8691248
  75.2756390  50.7414099  75.4573852  75.0780790  50.1483460  74.7324919
  74.7203054  50.4366310  76.1749791  83.2553113  50.6337206  77.5768445
  83.3101723  49.6811042  77.5010922  82.4444315  50.7896645  78.0609744
  84.4044307  54.5617329  68.8146729  83.9663737  53.8453188  68.3552366
  85.1454748  54.7893444  68.2531820  81.1945473  49.2514266  75.3358824
  80.3813339  49.5508436  75.7424016  81.6904468  48.8569954  76.0533306
  83.3454051  59.2472023  77.2693089  83.3030230  59.4732869  76.3401621
  84.2616750  59.0135397  77.4178890  86.7919685  49.7156090  84.1673718
  87.1469073  49.9427563  85.0268184  87.4391816  50.0474467  83.5450973
  92.5217422  52.8374526  74.8723047  92.3835321  53.0276122  73.9444236
  92.1653641  53.5993909  75.3291098  80.6859548  46.8232621  80.9520059
  81.3258927  46.6821380  80.2543022  79.8537079  46.5367135  80.5758661
  92.5486802  54.9051053  79.8834319  92.9823308  54.8126342  80.7317373
  93.2618382  54.8808553  79.2454335  81.4619852  56.1235052  77.0655052
  82.2560451  55.6285372  76.8637627  80.7511544  55.5952915  76.7022757
  86.2814697  58.5053147  81.4167419  86.3351719  59.0744083  82.1845135
  85.4129478  58.6755032  81.0521456  77.7702616  50.2678133  73.1414804
  76.8400204  50.2062589  73.3584766  77.8660087  49.7454086  72.3451446
  77.6888165  46.7932946  75.7293046  77.9494982  47.7078279  75.6202206
  78.5105337  46.3257389  75.8789659  79.1613090  48.2070703  82.8991870
  79.8336143  47.9988065  82.2504519  78.3342876  48.0092789  82.4597103
  93.4102351  54.9474754  82.4167204  93.6038241  55.8520564  82.6626479
  93.3102969  54.4882173  83.2505789  85.0638662  44.8332644  84.9157531
  84.4166577  45.5322594  84.8222008  85.8339677  45.2668788  85.2833780
  88.4717460  55.0981496  87.9908085  88.3202966  54.8692048  87.0738168
  88.4622139  56.0552098  88.0039430  85.2402796  52.6713409  82.9754351
  86.1694856  52.8224569  82.8023318  84.8193826  52.7597430  82.1202998
  84.0391128  56.6964074  80.7452889  83.9002214  56.3282858  81.6178827
  83.2505724  57.2111713  80.5736846  84.6339280  61.7973170  72.0878425
  84.8091036  61.3261213  72.9024048  83.9472068  62.4238936  72.3159686
  85.5896343  56.0745676  78.1341726  85.2546176  56.0346446  79.0299376
  85.0900289  55.4090392  77.6612137  79.5640587  51.4813306  83.6594308
  79.4260385  50.7493545  84.2605847  80.4745511  51.3922206  83.3778495
  88.5255535  53.4201711  68.4078786  87.9084705  52.6948539  68.3111839
  88.0572023  54.1811071  68.0645860  82.1922888  51.1933266  83.1477987
  82.9022506  50.5526458  83.1064606  82.1492196  51.4446160  84.0704168
  90.1809666  58.1300619  86.0684566  90.1222213  57.4459839  85.4015150
  90.5829185  58.8719609  85.6165192  80.9051822  48.1798483  84.9673627
  80.3689179  47.7289222  85.6195223  80.3168530  48.3144392  84.2244091
  79.2000365  64.9462533  78.8618285  79.4396964  65.5781057  79.5397304
  78.3569562  64.5950573  79.1483645  80.3154081  47.6387135  67.5300090
  79.4383547  47.5175936  67.1662337  80.7911834  46.8473213  67.2778979
  90.1827074  56.0940203  84.2998546  89.2953853  55.7566125  84.4224945
  90.7525625  55.3623234  84.5367312  71.8356221  52.4264295  77.6241598
  72.5227261  52.1126025  77.0362613  71.6804350  53.3305659  77.3508849
  76.6390943  47.3154491  82.0526621  76.5549132  46.7080161  81.3177031
  75.8173649  47.8063509  82.0536118  83.7128227  60.7541655  81.2659789
  83.6398399  61.5596627  81.7779094  83.2705620  60.9533621  80.4407811
  83.5018007  59.9913425  74.7762611  82.7185529  60.5335105  74.8700835
  84.2010752  60.5087405  75.1756852  86.8114657  45.8008055  77.4196816
  87.3083356  45.0478017  77.0997887  86.0401638  45.8372371  76.8540026
  94.6644414  51.5048420  79.0615108  94.6534291  52.3873136  78.6909041
  93.7961794  51.1519971  78.8669645  86.1726911  60.6528489  83.4217948
  86.8854883  61.2875954  83.3493849  85.6816939  60.7492355  82.6057950
  87.8944438  54.5579742  74.9935240  86.9600716  54.6781204  74.8239944
  88.0721106  53.6552209  74.7295250  83.3949626  47.9425438  77.1468501
  83.0247413  47.3896478  77.8349406  83.8908718  47.3383571  76.5943501
  91.2816989  50.3997061  75.5285274  91.7477441  51.2325053  75.4545577
  91.7324489  49.9342043  76.2330532  81.2238824  58.4022933  84.2423519
  81.9248284  59.0359416  84.3952913  80.7533939  58.7437664  83.4819158
  89.3493220  56.7440883  72.5271426  89.6253064  56.6297477  73.4365300
  88.4797719  56.3458367  72.4883599  89.2533652  42.7677648  79.5676175
  88.3396731  42.9981875  79.7358382  89.6826753  42.8516092  80.4190208
  89.0240110  50.9567540  82.0676069  88.3711560  51.2043448  81.4128522
  89.4020490  50.1431678  81.7338546  85.9847284  60.9927233  76.1704240
  86.1669679  60.1748889  76.6331992  86.8080270  61.2094926  75.7329129
  86.3189450  59.9195418  73.4319288  86.8477216  59.4087873  72.8189450
  86.5817669  59.6037949  74.2964821  85.0727683  51.6987351  88.5542106
  84.3968320  51.5981481  89.2244482  85.8955317  51.5426565  89.0178104
  76.8206542  57.9359288  81.1754622  77.4059979  57.1902976  81.3082526
  76.6231381  58.2463244  82.0591285  79.6745197  60.9710535  76.1917064
  79.0055573  61.4556663  75.7081104  79.5358067  61.2179756  77.1060442
  71.4124197  50.5064888  79.8959065  71.4508297  49.9728479  80.6896183
  70.9064490  49.9800093  79.2770042  83.8150466  63.0054279  82.7899722
  84.3668774  63.1685900  83.5548808  84.1556660  63.5958717  82.1179747
  78.7914959  45.3529428  83.3921607  78.8556286  46.2144259  82.9799005
  78.7282080  44.7403430  82.6593966  78.2667232  47.4252561  87.0394641
  78.8939271  47.0429638  87.6532166  77.4095151  47.2066763  87.4050334
  88.6661340  57.8315536  88.6448377  89.2101244  58.4445494  88.1503332
  88.0848185  58.3895115  89.1615390  75.0432775  49.2328990  72.9712996
  75.3386216  48.3239669  72.9180050  74.1420810  49.2116730  72.6493998
  86.9518853  60.9536254  79.7763404  86.8269993  60.1525994  79.2674350
  87.6097944  61.4482448  79.2877374  78.5727022  47.3084987  78.9540545
  77.8513607  47.9220954  78.8148018  79.3620277  47.8442752  78.8757191
  89.0153762  58.7545274  81.4042955  88.0684097  58.6350625  81.3321281
  89.3636535  57.8667772  81.4869216  81.3753335  44.6439413  85.2281196
  81.8987737  44.8901710  85.9907506  81.1565668  45.4759448  84.8084334
  76.7720616  46.9143088  73.0952321  76.4433322  46.0340467  72.9127427
  77.1259987  46.8590756  73.9828710  86.0200195  58.5497991  77.6047307
  85.8725157  57.6214698  77.7854877  86.8453689  58.5718081  77.1204382
  79.8862439  47.2016058  73.4627799  80.2258512  47.7301979  72.7406407
  80.3334560  47.5396464  74.2386365  89.6234317  59.3726549  78.6912180
  90.5480864  59.1669411  78.5536631  89.4549620  59.1242950  79.6001521
  82.5805880  45.5853108  82.9130867  82.2402701  44.7860921  83.3151547
  81.8744886  45.8854819  82.3407700  83.2322352  42.6702421  81.3658190
  84.0548421  42.1962899  81.2437080  83.4760416  43.4492905  81.8656876
  81.8730586  45.6990679  71.6621092  82.5938949  46.0771932  71.1584809
  81.2495891  46.4179556  71.7656070  86.0161709  46.4035828  72.5979424
  86.2325324  47.2860466  72.2968252  85.5355777  46.0122042  71.8685066
  80.7560931  49.3621541  79.1750169  80.6105511  49.6761844  80.0674450
  80.2786134  49.9806442  78.6221067  82.6157314  46.3524089  79.2231058
  82.6018882  45.4565183  78.8863356  83.3329742  46.3594753  79.8569344
  84.4683444  46.7861430  81.2684186  84.2101222  47.7078500  81.2668516
  83.9368485  46.3891864  81.9584650  89.4129633  59.8912217  74.0474271
  89.5866511  59.3258639  73.2948123  89.9058524  60.6913112  73.8653761
  75.2306593  51.9026886  82.1137830  74.6860061  52.6786694  82.2458104
  76.1085943  52.2497690  81.9556951  82.0194210  45.2338470  74.4918628
  82.1410121  44.3055116  74.6909516  81.7296252  45.2477156  73.5796944
  84.8885400  42.9193380  77.6285348  84.9107097  42.9832713  76.6737328
  85.3053459  42.0797889  77.8225854  95.2669024  52.6548640  75.6664571
  95.7100170  51.9055965  75.2683694  94.3895535  52.6458776  75.2838303
  90.4004806  59.2078981  71.1471169  91.0955710  59.8285674  71.3658484
  90.7427956  58.3574332  71.4223547  76.0172615  51.0296782  85.0067987
  75.2754351  51.1779417  85.5932617  75.6965359  51.2905048  84.1434736
  92.2996229  56.6578687  72.6758500  92.8247553  56.9965959  71.9507820
  92.2118581  55.7225702  72.4921635  83.9616277  60.5712760  84.8048377
  84.2703404  60.3261907  85.6771076  84.7591759  60.7759399  84.3167247
  83.9836889  62.7250670  77.0353753  83.5441880  62.2327049  77.7286610
  84.7345006  62.1823638  76.7945828  76.4629228  58.9162211  77.0378381
  77.2887248  58.6165983  76.6577025  76.1123280  58.1469833  77.4868170
  81.4310762  58.2688679  79.1076055  80.8090771  57.6059384  78.8078283
  82.1015629  58.2949811  78.4249703  74.6637833  56.8348537  77.9967315
  73.8269742  56.4070712  77.8151316  74.6361479  57.0280981  78.9338106
  81.5035289  46.7470467  88.7008561  81.5523445  47.6232590  88.3186331
  82.0457803  46.2047860  88.1280204  91.9890135  57.2911590  87.9809698
  91.1985678  57.2735729  87.4414197  91.7523489  57.8299884  88.7358735
  92.1088010  54.1404057  85.2942427  92.1586015  53.9754064  86.2357949
  92.0001933  53.2731316  84.9040307  80.9924269  56.8192602  72.5834515
  81.1412389  57.5028067  71.9301188  81.7990712  56.7997692  73.0983971
  89.3991772  50.1234985  86.6101733  90.3001635  49.9841450  86.3185731
  89.4739747  50.2889440  87.5499911  83.7334578  47.5001839  85.4554920
  82.8637887  47.7935405  85.1837508  83.9694058  48.0842284  86.1762183
  93.6106207  56.5600998  85.5384448  93.3191015  56.9230979  86.3747909
  92.9978338  55.8468006  85.3597780  94.8101889  54.1253878  78.0587018
  95.6448780  54.5643682  78.2224579  94.9461018  53.6492531  77.2395264
  91.8593395  51.6833613  84.0064506  92.3347516  51.8761259  83.1983357
  90.9358960  51.7392799  83.7607890  78.7476901  52.8457780  73.5895584
  78.5022943  51.9420110  73.7875794  78.9172816  52.8474930  72.6475062
  86.4373611  43.7181456  82.9720340  86.9555555  44.4542483  82.6466829
  86.0828744  44.0245450  83.8067099  78.0172549  48.5786138  71.0881746
  77.3241794  48.6530493  70.4321782  77.7724301  47.8146481  71.6103263
  86.6886206  40.1381739  78.4921237  86.9687959  39.4704928  79.1181663
  87.4736812  40.3310834  77.9795900  84.4919674  59.3140733  70.0546263
  83.9193641  59.9330920  69.6016735  85.0652468  59.8640094  70.5886185
  90.5595064  48.5599373  82.2392812  91.5112487  48.6597471  82.2605036
  90.3898514  47.7677641  82.7490896  88.5809443  45.6454956  82.4252213
  87.9859375  45.9259969  81.7298701  88.2959140  46.1348857  83.1968954
  87.7116934  59.5977883  71.1854845  88.6447607  59.5323445  71.3887721
  87.6240147  60.4334150  70.7269378  90.3404950  58.9143753  68.1458793
  90.2618582  58.5803617  69.0394551  91.1614617  59.4065521  68.1450265
  93.0383142  51.7805493  81.3535111  93.0059462  50.8421493  81.5394795
  93.6483765  51.8589529  80.6200936  84.8766473  50.6501546  67.3962315
  85.8225577  50.5207754  67.4650733  84.4980717  49.9116207  67.8731744
  93.1877630  48.5716536  81.3993394  92.6716679  47.7874993  81.2123323
  94.0717579  48.2435253  81.5639914  90.8488357  42.3157552  77.3589207
  90.6513178  42.0072640  78.2432539  91.4588063  43.0419190  77.4887137
  98.8559692  52.8421499  80.4941148  99.5863080  52.5806788  81.0548851
  98.2466637  52.1050221  80.5343216  96.9374989  50.9829362  81.0915599
  96.2108152  50.8485327  80.4832091  96.5222276  51.2906191  81.8972317
  84.7605165  54.7019292  88.8562972  85.6808175  54.8797891  89.0503019
  84.7254748  53.7575337  88.7042672  83.0609390  48.5751522  67.3317201
  82.1540845  48.2784635  67.4079914  83.3385371  48.2781340  66.4651487
  73.9787330  49.8957885  77.7816247  73.6590114  49.0423194  77.4890621
  73.4320758  50.1106463  78.5374214  77.7567238  52.6120326  81.4985753
  77.9753247  53.5437434  81.5173787  78.1693011  52.2528301  82.2840557
  84.6771455  43.1188412  73.4861442  83.8672184  42.7735497  73.8616688
  85.3655872  42.8095955  74.0749053  86.6062004  42.1966458  75.1085738
  87.1593042  42.6161912  75.7675762  86.8432090  41.2702207  75.1508695
  82.6295103  48.1853532  90.8888502  82.5291830  49.1347889  90.8200594
  82.4116645  47.8571771  90.0164572  81.8308174  45.4338457  67.4729180
  82.6927338  45.7593355  67.7324997  82.0158518  44.6469953  66.9602246
  73.8475590  53.5160797  79.7509369  73.1539062  53.1014750  79.2379323
  74.5948581  53.5581333  79.1542787  89.9840811  44.3066984  74.6164403
  89.4039480  44.9651788  74.2342455  89.7176743  43.4844328  74.2051820
  88.4344377  43.7072041  76.8185723  88.9344156  43.8188576  76.0100042
  89.0779985  43.4033094  77.4586532  82.4926373  51.6150671  89.7053564
  82.0093455  52.4151031  89.9117453  82.5787312  51.6258616  88.7521008
  75.7612333  53.4479051  77.6275383  75.7383021  53.5466738  76.6757267
  76.0712969  54.2944201  77.9492550  78.4199710  55.5055206  81.7421998
  79.3742964  55.4739148  81.6751929  78.2212234  55.0445829  82.5572224
  79.0099093  54.0756322  84.3092796  79.8291982  54.5700400  84.3327633
  79.2835900  53.1588290  84.2810363  88.7665689  46.4667074  73.6720751
  87.8791544  46.7516725  73.4540946  89.1819678  46.3060837  72.8248028
  92.1180225  46.4913595  77.3875090  92.8940615  46.9810047  77.6599707
  91.3928359  46.9171649  77.8446960  94.5552784  47.2041214  78.4449031
  95.1497274  46.9636950  77.7342339  94.6279367  46.4848345  79.0722567
  76.7749939  61.0474825  78.7592196  76.6404407  60.2875226  78.1930194
  76.3582002  61.7715725  78.2920985  87.9108902  56.2311749  67.7668771
  88.6144752  56.4361751  68.3826427  87.1871551  56.7988511  68.0317855
  88.7406713  51.9821610  73.8871041  88.6841914  52.4390161  73.0478674
  89.2935055  51.2212295  73.7093884  92.5511518  47.7711342  74.7121161
  92.2948453  47.3707977  75.5429368  91.9264386  48.4855136  74.5871300
  96.8623856  50.5107415  77.2192452  96.3023414  50.5800604  77.9924014
  96.2567360  50.3348400  76.4991948  79.9319065  61.9444142  78.9710638
  79.8151449  62.8889575  78.8689329  79.1111511  61.6417704  79.3596438
  89.8195600  56.6694278  69.8167231  90.6541204  56.2375476  69.6344706
  89.6579943  56.4976292  70.7444126  89.4741492  53.1726391  71.1823570
  89.4190296  53.0070663  70.2412014  88.8487547  53.8802424  71.3385760
  74.2634007  48.4094456  85.0084993  74.9092870  47.8993410  85.4972218
  74.0551158  49.1463137  85.5828418  86.7887399  55.4775303  90.5077133
  87.6578559  55.6515955  90.1463768  86.3094151  56.2969720  90.3852862
  82.7837617  42.6734500  70.7608889  82.7716287  43.6176340  70.9177160
  83.6761039  42.4904646  70.4668350  80.9573579  62.5972404  82.1866567
  81.8600826  62.6296014  82.5033062  80.7310949  61.6672855  82.2012903
  82.7127181  61.3503391  78.8476645  81.7622812  61.3505252  78.7341018
  83.0159667  60.6036125  78.3312680  86.5989737  39.2677277  75.0154826
  85.8322133  38.7135764  75.1611508  87.0100442  39.3399146  75.8768977
  78.6031498  45.5562073  89.1060007  79.4662959  45.1998877  89.3163331
  78.0296908  45.2175967  89.7935411  98.4479875  67.1863929  79.9122408
  99.0858285  67.0670676  79.2085748  98.3300718  68.1344773  79.9710360
  95.2569581  67.1391357  79.8483933  94.9188093  67.0232422  78.9604467
  96.1259349  66.7382522  79.8284939  91.1156397  68.9926833  75.8380823
  90.5521262  68.9016770  75.0697111  91.0008792  68.1726738  76.3183316
  95.7389364  68.2926209  85.8070138  95.7278005  67.8979007  84.9350642
  95.9010004  67.5592281  86.4003909  88.6620829  70.4878025  78.6765044
  89.4542121  70.1468850  78.2611343  88.9017479  70.5973000  79.5967197
  96.6955955  72.6597801  71.1495288  96.0443935  73.2451882  70.7629302
  97.4900318  73.1903996  71.2090326  90.6211583  69.7486938  71.5482423
  91.3942459  69.2015925  71.4095299  90.9736981  70.6131188  71.7596884
  92.4596625  71.0763321  84.7549322  92.1686491  71.9808951  84.6395988
  93.0953610  71.1179848  85.4693392  93.3852832  68.4540169  81.3450682
  93.9816404  68.2296192  80.6307645  93.4427804  67.7124915  81.9476130
  92.9577860  65.9079604  69.1800873  93.2103381  65.3861126  68.4184336
  92.0202420  65.7445750  69.2827556  98.0021143  64.9115383  76.9875616
  98.7884232  64.4934806  76.6366033  98.2659848  65.8161475  77.1557264
  98.1731221  70.3488233  71.6864273  97.5377054  70.4222860  72.3985177
  97.8428627  70.9381832  71.0083352  92.6774149  67.8107710  71.3825248
  92.5610407  67.1352614  72.0506332  92.7876409  67.3240084  70.5657401
  95.0205690  67.2717858  75.0871937  94.6563897  66.7448478  75.7984858
  95.8772806  66.8816327  74.9138422 100.9254991  58.5612190  82.3503203
 100.5938316  59.4307601  82.1264418 100.3300604  58.2448474  83.0297233
  94.6611177  62.3007757  70.0833285  94.8285579  63.1687994  70.4503756
  94.4708346  62.4635039  69.1594575  97.4186510  70.7624736  81.7499116
  97.1187233  71.6649775  81.6414923  97.0737570  70.4956919  82.6020269
  90.8698992  67.2138533  77.7835820  89.9449488  67.0814747  77.9913512
  91.1183405  67.9932752  78.2805763 100.8183654  63.2807276  79.4296553
  99.9100531  63.2122685  79.1355314 100.7671250  63.7579221  80.2578379
  94.6400398  64.7565415  71.0679952  94.5200023  65.2022465  71.9065432
  93.9452986  65.1050732  70.5093490  88.2307803  66.8571807  78.6179609
  88.3600184  67.1106285  79.5319021  87.5505254  67.4499515  78.2984264
  92.4007290  77.5269056  74.7170083  92.3231320  78.4776882  74.7958564
  91.7968934  77.1814929  75.3745010  94.8924520  64.6996922  87.3731450
  94.1157854  65.2590842  87.3634315  95.5315083  65.1853705  87.8946320
 102.6845300  61.4823715  81.2074427 102.0419681  61.7756248  80.5614222
 102.1800229  61.3676635  82.0127624 100.3385464  65.2286888  71.8960286
 101.2503320  65.4614275  71.7207984  99.8295111  65.8123932  71.3335365
  93.1470892  67.5082375  86.9349417  93.8885577  68.0467419  86.6584241
  92.4407878  68.1348664  87.0920969  98.6226232  69.6511516  85.5321579
  99.0309588  69.2093926  84.7876211  97.9003493  69.0764143  85.7855772
  94.9757302  64.5884122  82.9055136  95.8218497  65.0123536  83.0489785
  94.9155940  63.9317747  83.5993699  98.9455046  70.2112706  79.2873868
  98.3163909  70.3758420  78.5849936  98.5580709  70.6254316  80.0584832
 102.8244278  71.1467144  76.6418231 102.1395316  71.5266046  76.0915265
 102.9088128  71.7562471  77.3750179  98.1256747  62.2488491  84.5636309
  97.8817679  63.0030551  84.0270585  98.4016678  62.6273838  85.3983556
 100.0795210  68.7927103  83.2413575 100.2912105  69.4358863  82.5647956
 100.0324958  67.9589420  82.7735505  97.6821439  61.4044924  80.1450147
  96.8205918  61.7026177  80.4366885  97.7083874  61.6215323  79.2131180
  94.4983008  69.9487114  76.5523953  94.9621354  70.2274817  75.7628575
  94.2339806  69.0470559  76.3697043  91.3907089  69.4958596  79.4903716
  91.9608446  69.9245864  78.8521201  91.9815201  69.2141181  80.1887902
  93.4351894  66.0710267  73.3613518  94.1375938  66.5231310  73.8287444
  93.1032523  65.4294086  73.9893411  91.8832256  64.6622023  87.7364727
  91.2530916  65.3438304  87.9700124  91.7768344  64.5505105  86.7917866
  87.1777228  64.3293819  78.6630651  86.3876282  64.5851348  78.1870762
  87.6688476  65.1442157  78.7682692 101.1941038  71.6699059  81.4135932
 102.0158482  71.2679246  81.1318614 101.1903441  71.5667293  82.3652048
  89.1291974  64.6938399  75.6214128  88.3323137  64.8057093  76.1397624
  88.9017566  65.0325051  74.7555019  94.9597641  71.2183102  83.5696643
  95.0242074  71.6803509  84.4054815  94.2508565  70.5880467  83.6978953
  85.4614931  64.5824310  81.0945642  85.7122970  65.4671320  81.3603218
  85.9974480  64.4028911  80.3220734  94.6745659  72.8851209  73.4375623
  94.5391334  73.7302745  73.8660471  95.2155471  73.0870487  72.6741557
  91.1612999  58.9642789  90.0989978  90.7679944  58.4108988  90.7737623
  91.9779139  59.2753368  90.4896496  88.1275056  70.4026647  74.0103548
  88.6399577  71.1969898  74.1609113  88.7797769  69.7052938  73.9437150
  89.9369941  73.5192404  76.0926301  90.1136569  74.4410368  75.9047285
  90.7326775  73.2050823  76.5220681  94.0780960  60.3800668  87.6910235
  94.8190673  60.9807821  87.6114697  94.3098882  59.6378306  87.1328277
  89.2222298  65.5657036  85.9688465  89.1075813  64.6642293  86.2695563
  88.3666815  65.8120732  85.6173281  91.0601257  75.0370578  82.0936644
  91.6108682  74.9087641  81.3213638  90.2212732  75.3365467  81.7431537
  98.0238123  56.4081771  81.9674517  97.6802392  57.2983413  81.8913627
  98.3917085  56.2183429  81.1044102  86.0923973  68.7315302  74.7863119
  86.9299195  69.1412310  74.5696826  86.2702241  67.7914744  74.7563313
  97.9888405  66.3990382  70.4746952  97.4735029  67.1694987  70.7135339
  97.7165714  65.7255519  71.0980013  95.5735516  61.2440083  75.5332190
  94.7177113  60.8546934  75.3537829  95.9862468  61.3232044  74.6731976
  97.1034663  58.7786426  79.9323750  96.5999459  58.7416562  79.1191555
  97.3965270  59.6879169  79.9920406  93.3477549  58.8625156  78.9389932
  94.2130546  58.6667965  78.5795821  93.4155058  58.6335508  79.8659288
 102.9622679  69.1522737  72.4100125 102.1852122  68.8133897  71.9655287
 103.6414160  69.1575360  71.7355090  97.7774708  64.2717475  72.3006733
  97.4724844  64.5863624  73.1516876  98.7305151  64.3498894  72.3434066
  96.2221140  70.4307698  73.9499687  95.6942502  69.6960457  73.6372924
  95.7208643  71.2082374  73.7039655 101.2013986  68.6256718  79.0666733
 100.5437661  69.3155980  79.1546862 102.0054386  69.0153150  79.4100720
  90.9539868  61.0927364  76.3106298  91.5283620  60.8702546  75.5779491
  91.5410850  61.1616059  77.0634900 100.0119445  66.9801091  77.1170675
 100.5251327  67.6131083  77.6192385 100.6620669  66.3802287  76.7514035
  91.2809455  63.1231825  70.3302184  90.4446767  63.4606512  70.6511458
  91.1414225  62.9880805  69.3929321  93.2562536  57.9668613  75.0381368
  92.6026948  57.6517630  74.4137983  93.2143010  57.3444353  75.7641191
  94.3673740  68.2487908  66.9534660  93.4600802  68.0177162  67.1525809
  94.8644772  67.4525527  67.1408641  97.2741819  76.9585415  69.8731346
  96.6003518  77.2617112  70.4816304  97.6607641  77.7614496  69.5236803
  96.4900276  64.4550547  79.3629015  95.5722837  64.6765494  79.2050703
  96.9060420  64.5296857  78.5040723  97.2735324  65.8541962  74.4931696
  98.0207143  66.3663359  74.1838818  97.5426913  65.5326015  75.3536089
  95.5461974  68.3500503  71.4758650  94.6373193  68.0659536  71.5731120
  95.5757058  68.7699582  70.6161957 100.7781241  71.9607092  75.2449818
 100.3243568  71.1198002  75.3015008 100.1475208  72.5968491  75.5824598
  99.7214161  62.8899078  76.4750485  98.9836918  62.3776465  76.8060728
  99.9740934  62.4499460  75.6633762  99.2214181  73.7983589  76.1799636
  99.5137155  74.3588646  75.4612001  99.7312801  74.0912150  76.9352795
  99.8225788  55.6675330  77.0692254 100.1284665  54.8072694  76.7818169
 100.5478393  56.2592951  76.8691248  86.1150144  66.0706017  75.4573852
  85.9174544  65.4775378  74.7324919  85.5596808  65.7658227  76.1749791
  94.0946868  65.9629124  77.5768445  94.1495478  65.0102960  77.5010922
  93.2838070  66.1188563  78.0609744  95.2438062  69.8909247  68.8146729
  94.8057492  69.1745106  68.3552366  95.9848503  70.1185361  68.2531820
  92.0339228  64.5806183  75.3358824  91.2207093  64.8800354  75.7424016
  92.5298222  64.1861872  76.0533306  94.1847806  74.5763940  77.2693089
  94.1423985  74.8024787  76.3401621  95.1010505  74.3427315  77.4178890
  97.6313440  65.0448008  84.1673718  97.9862827  65.2719481  85.0268184
  98.2785571  65.3766385  83.5450973 103.3611176  68.1666444  74.8723047
 103.2229075  68.3568040  73.9444236 103.0047395  68.9285826  75.3291098
  91.5253303  62.1524539  80.9520059  92.1652682  62.0113298  80.2543022
  90.6930833  61.8659052  80.5758661  92.3013607  71.4526969  77.0655052
  93.0954205  70.9577289  76.8637627  91.5905299  70.9244832  76.7022757
  97.1208451  73.8345065  81.4167419  97.1745473  74.4036001  82.1845135
  96.2523232  74.0046950  81.0521456  88.6096370  65.5970051  73.1414804
  87.6793958  65.5354506  73.3584766  88.7053842  65.0746004  72.3451446
  88.5281919  62.1224864  75.7293046  88.7888736  63.0370197  75.6202206
  89.3499091  61.6549306  75.8789659  90.0006844  63.5362621  82.8991870
  90.6729898  63.3279983  82.2504519  89.1736631  63.3384707  82.4597103
  95.9032416  60.1624562  84.9157531  95.2560331  60.8614512  84.8222008
  96.6733432  60.5960706  85.2833780  96.0796551  68.0005327  82.9754351
  97.0088611  68.1516486  82.8023318  95.6587581  68.0889348  82.1202998
  94.8784883  72.0255991  80.7452889  94.7395968  71.6574776  81.6178827
  94.0899479  72.5403631  80.5736846  95.4733034  77.1265088  72.0878425
  95.6484790  76.6553131  72.9024048  94.7865823  77.7530854  72.3159686
  96.4290098  71.4037594  78.1341726  96.0939930  71.3638364  79.0299376
  95.9294043  70.7382310  77.6612137  90.4034342  66.8105224  83.6594308
  90.2654140  66.0785463  84.2605847  91.3139265  66.7214124  83.3778495
  99.3649289  68.7493628  68.4078786  98.7478460  68.0240456  68.3111839
  98.8965778  69.5102989  68.0645860  93.0316642  66.5225183  83.1477987
  93.7416261  65.8818375  83.1064606  92.9885950  66.7738078  84.0704168
  91.7445576  63.5090401  84.9673627  91.2082933  63.0581140  85.6195223
  91.1562285  63.6436310  84.2244091  90.0394120  80.2754450  78.8618285
  90.2790718  80.9072975  79.5397304  89.1963316  79.9242490  79.1483645
  91.1547835  62.9679053  67.5300090  90.2777302  62.8467853  67.1662337
  91.6305588  62.1765131  67.2778979  82.6749975  67.7556212  77.6241598
  83.3621015  67.4417942  77.0362613  82.5198104  68.6597577  77.3508849
  87.4784698  62.6446409  82.0526621  87.3942886  62.0372078  81.3177031
  86.6567404  63.1355427  82.0536118  94.5521982  76.0833573  81.2659789
  94.4792153  76.8888544  81.7779094  94.1099375  76.2825539  80.4407811
  94.3411761  75.3205343  74.7762611  93.5579283  75.8627023  74.8700835
  95.0404506  75.8379323  75.1756852  97.6508411  61.1299972  77.4196816
  98.1477111  60.3769935  77.0997887  96.8795393  61.1664289  76.8540026
  98.7338192  69.8871660  74.9935240  97.7994471  70.0073122  74.8239944
  98.9114861  68.9844126  74.7295250  94.2343380  63.2717355  77.1468501
  93.8641168  62.7188396  77.8349406  94.7302473  62.6675489  76.5943501
 102.1210743  65.7288979  75.5285274 102.5871196  66.5616970  75.4545577
 102.5718244  65.2633960  76.2330532  92.0632579  73.7314850  84.2423519
  92.7642038  74.3651333  84.3952913  91.5927694  74.0729582  83.4819158
 100.1886975  72.0732800  72.5271426 100.4646818  71.9589395  73.4365300
  99.3191473  71.6750285  72.4883599 100.0927406  58.0969566  79.5676175
  99.1790486  58.3273793  79.7358382 100.5220508  58.1808010  80.4190208
  99.8633865  66.2859458  82.0676069  99.2105315  66.5335365  81.4128522
 100.2414245  65.4723596  81.7338546  96.8241039  76.3219151  76.1704240
  97.0063433  75.5040807  76.6331992  97.6474025  76.5386843  75.7329129
  97.1583204  75.2487336  73.4319288  97.6870970  74.7379791  72.8189450
  97.4211424  74.9329866  74.2964821  87.6600297  73.2651205  81.1754622
  88.2453734  72.5194893  81.3082526  87.4625135  73.5755162  82.0591285
  90.5138952  76.3002453  76.1917064  89.8449327  76.7848580  75.7081104
  90.3751822  76.5471673  77.1060442  82.2517951  65.8356806  79.8959065
  82.2902051  65.3020396  80.6896183  81.7458244  65.3092011  79.2770042
  89.6308714  60.6821346  83.3921607  89.6950040  61.5436177  82.9799005
  89.5675834  60.0695348  82.6593966  89.1060986  62.7544479  87.0394641
  89.7333025  62.3721556  87.6532166  88.2488905  62.5358681  87.4050334
  85.8826529  64.5620908  72.9712996  86.1779970  63.6531586  72.9180050
  84.9814565  64.5408647  72.6493998  97.7912608  76.2828172  79.7763404
  97.6663747  75.4817912  79.2674350  98.4491699  76.7774365  79.2877374
  89.4120776  62.6376904  78.9540545  88.6907362  63.2512872  78.8148018
  90.2014032  63.1734669  78.8757191  99.8547516  74.0837192  81.4042955
  98.9077852  73.9642543  81.3321281 100.2030289  73.1959690  81.4869216
  92.2147090  59.9731331  85.2281196  92.7381491  60.2193627  85.9907506
  91.9959423  60.8051366  84.8084334  87.6114371  62.2435005  73.0952321
  87.2827077  61.3632384  72.9127427  87.9653741  62.1882674  73.9828710
  96.8593950  73.8789908  77.6047307  96.7118912  72.9506616  77.7854877
  97.6847443  73.9009999  77.1204382  90.7256194  62.5307975  73.4627799
  91.0652266  63.0593897  72.7406407  91.1728314  62.8688381  74.2386365
 100.4628071  74.7018467  78.6912180 101.3874619  74.4961328  78.5536631
 100.2943375  74.4534868  79.6001521  93.4199635  60.9145026  82.9130867
  93.0796455  60.1152839  83.3151547  92.7138641  61.2146737  82.3407700
  94.0716106  57.9994338  81.3658190  94.8942176  57.5254817  81.2437080
  94.3154170  58.7784822  81.8656876  92.7124341  61.0282597  71.6621092
  93.4332703  61.4063850  71.1584809  92.0889645  61.7471474  71.7656070
  96.8555464  61.7327746  72.5979424  97.0719078  62.6152384  72.2968252
  96.3749531  61.3413959  71.8685066  91.5954685  64.6913459  79.1750169
  91.4499266  65.0053762  80.0674450  91.1179889  65.3098359  78.6221067
  93.4551068  61.6816007  79.2231058  93.4412637  60.7857100  78.8863356
  94.1723496  61.6886671  79.8569344  95.3077199  62.1153347  81.2684186
  95.0494977  63.0370418  81.2668516  94.7762239  61.7183782  81.9584650
 100.2523388  75.2204134  74.0474271 100.4260265  74.6550557  73.2948123
 100.7452279  76.0205029  73.8653761  86.0700347  67.2318803  82.1137830
  85.5253815  68.0078611  82.2458104  86.9479697  67.5789608  81.9556951
  92.8587964  60.5630387  74.4918628  92.9803875  59.6347034  74.6909516
  92.5690006  60.5769073  73.5796944  95.7279154  58.2485298  77.6285348
  95.7500851  58.3124631  76.6737328  96.1447213  57.4089806  77.8225854
 101.2398560  74.5370899  71.1471169 101.9349465  75.1577591  71.3658484
 101.5821710  73.6866250  71.4223547  86.8566369  66.3588700  85.0067987
  86.1148105  66.5071335  85.5932617  86.5359114  66.6196965  84.1434736
 103.1389983  71.9870604  72.6758500 103.6641307  72.3257877  71.9507820
 103.0512336  71.0517620  72.4921635  94.8230644  78.0542588  77.0353753
  94.3835634  77.5618966  77.7286610  95.5738761  77.5115555  76.7945828
  87.3022983  74.2454128  77.0378381  88.1281003  73.9457900  76.6577025
  86.9517035  73.4761751  77.4868170  92.2704516  73.5980597  79.1076055
  91.6484525  72.9351302  78.8078283  92.9409383  73.6241729  78.4249703
  85.5031588  72.1640455  77.9967315  84.6663496  71.7362629  77.8151316
  85.4755233  72.3572898  78.9338106  92.3429044  62.0762385  88.7008561
  92.3917199  62.9524507  88.3186331  92.8851558  61.5339778  88.1280204
  91.8318023  72.1484520  72.5834515  91.9806143  72.8319984  71.9301188
  92.6384466  72.1289610  73.0983971 100.2385527  65.4526902  86.6101733
 101.1395389  65.3133367  86.3185731 100.3133501  65.6181357  87.5499911
  94.5728332  62.8293757  85.4554920  93.7031641  63.1227323  85.1837508
  94.8087812  63.4134202  86.1762183 102.6987149  67.0125530  84.0064506
 103.1741271  67.2053177  83.1983357 101.7752715  67.0684716  83.7607890
  89.5870656  68.1749698  73.5895584  89.3416698  67.2712028  73.7875794
  89.7566571  68.1766848  72.6475062  97.2767366  59.0473374  82.9720340
  97.7949310  59.7834401  82.6466829  96.9222499  59.3537367  83.8067099
  88.8566304  63.9078055  71.0881746  88.1635548  63.9822410  70.4321782
  88.6118055  63.1438399  71.6103263  97.5279960  55.4673657  78.4921237
  97.8081714  54.7996846  79.1181663  98.3130567  55.6602752  77.9795900
  95.3313429  74.6432650  70.0546263  94.7587396  75.2622838  69.6016735
  95.9046222  75.1932012  70.5886185 101.3988818  63.8891291  82.2392812
 102.3506241  63.9889388  82.2605036 101.2292269  63.0969559  82.7490896
  99.4203198  60.9746874  82.4252213  98.8253130  61.2551886  81.7298701
  99.1352895  61.4640775  83.1968954  98.5510688  74.9269801  71.1854845
  99.4841361  74.8615362  71.3887721  98.4633901  75.7626067  70.7269378
 101.1798705  74.2435671  68.1458793 101.1012337  73.9095535  69.0394551
 102.0008372  74.7357439  68.1450265  95.7160227  65.9793463  67.3962315
  96.6619332  65.8499671  67.4650733  95.3374472  65.2408125  67.8731744
 101.6882112  57.6449469  77.3589207 101.4906933  57.3364557  78.2432539
 102.2981817  58.3711108  77.4887137  93.9003144  63.9043440  67.3317201
  92.9934600  63.6076552  67.4079914  94.1779125  63.6073258  66.4651487
  84.8181085  65.2249803  77.7816247  84.4983869  64.3715111  77.4890621
  84.2714513  65.4398381  78.5374214  88.5960992  67.9412244  81.4985753
  88.8147002  68.8729352  81.5173787  89.0086766  67.5820218  82.2840557
  95.5165210  58.4480329  73.4861442  94.7065938  58.1027414  73.8616688
  96.2049627  58.1387873  74.0749053  97.4455758  57.5258376  75.1085738
  97.9986797  57.9453830  75.7675762  97.6825845  56.5994124  75.1508695
  93.4688857  63.5145450  90.8888502  93.3685584  64.4639807  90.8200594
  93.2510399  63.1863689  90.0164572  92.6701929  60.7630375  67.4729180
  93.5321093  61.0885273  67.7324997  92.8552273  59.9761871  66.9602246
  84.6869345  68.8452714  79.7509369  83.9932816  68.4306667  79.2379323
  85.4342336  68.8873251  79.1542787 100.8234565  59.6358901  74.6164403
 100.2433234  60.2943705  74.2342455 100.5570498  58.8136246  74.2051820
  99.2738132  59.0363959  76.8185723  99.7737910  59.1480494  76.0100042
  99.9173740  58.7325012  77.4586532  86.6006087  68.7770968  77.6275383
  86.5776775  68.8758656  76.6757267  86.9106724  69.6236119  77.9492550
  89.2593465  70.8347123  81.7421998  90.2136719  70.8031066  81.6751929
  89.0605989  70.3737747  82.5572224  89.8492847  69.4048239  84.3092796
  90.6685736  69.8992318  84.3327633  90.1229655  68.4880207  84.2810363
  99.6059443  61.7958992  73.6720751  98.7185298  62.0808642  73.4540946
 100.0213432  61.6352755  72.8248028 102.9573979  61.8205513  77.3875090
 103.7334370  62.3101965  77.6599707 102.2322114  62.2463567  77.8446960
  87.6143694  76.3766743  78.7592196  87.4798162  75.6167144  78.1930194
  87.1975756  77.1007643  78.2920985  98.7502657  71.5603666  67.7668771
  99.4538507  71.7653669  68.3826427  98.0265306  72.1280428  68.0317855
  99.5800467  67.3113528  73.8871041  99.5235668  67.7682079  73.0478674
 100.1328810  66.5504212  73.7093884 103.3905273  63.1003259  74.7121161
 103.1342207  62.6999895  75.5429368 102.7658141  63.8147053  74.5871300
  90.7712820  77.2736060  78.9710638  90.6545204  78.2181492  78.8689329
  89.9505266  76.9709621  79.3596438 100.6589354  71.9986196  69.8167231
 101.4934958  71.5667394  69.6344706 100.4973697  71.8268209  70.7444126
 100.3135246  68.5018309  71.1823570 100.2584050  68.3362580  70.2412014
  99.6881302  69.2094342  71.3385760  85.1027761  63.7386373  85.0084993
  85.7486625  63.2285327  85.4972218  84.8944912  64.4755055  85.5828418
  93.6231372  58.0026418  70.7608889  93.6110042  58.9468258  70.9177160
  94.5154794  57.8196563  70.4668350  91.7967334  77.9264322  82.1866567
  92.6994580  77.9587932  82.5033062  91.5704704  76.9964773  82.2012903
  93.5520936  76.6795308  78.8476645  92.6016567  76.6797170  78.7341018
  93.8553422  75.9328043  78.3312680  97.4383491  54.5969194  75.0154826
  96.6715887  54.0427681  75.1611508  97.8494196  54.6691063  75.8768977
  89.4425252  60.8853990  89.1060007  90.3056714  60.5290795  89.3163331
  88.8690663  60.5467885  89.7935411 101.9550151  84.3218751  75.8380823
 101.3915016  84.2308688  75.0697111 101.8402546  83.5018656  76.3183316
 101.4605337  85.0778856  71.5482423 102.2336213  84.5307843  71.4095299
 101.8130736  85.9423105  71.7596884 103.5167904  83.1399628  71.3825248
 103.4004162  82.4644531  72.0506332 103.6270164  82.6532002  70.5657401
  98.0170983  79.6585737  78.6630651  97.2270037  79.9143266  78.1870762
  98.5082230  80.4734075  78.7682692  99.9685728  80.0230316  75.6214128
  99.1716891  80.1349011  76.1397624  99.7411320  80.3616969  74.7555019
  98.9668811  85.7318565  74.0103548  99.4793331  86.5261815  74.1609113
  99.6191524  85.0344856  73.9437150  96.9317728  84.0607219  74.7863119
  97.7692950  84.4704228  74.5696826  97.1095995  83.1206662  74.7563313
 101.7933622  76.4219282  76.3106298 102.3677374  76.1994463  75.5779491
 102.3804605  76.4907976  77.0634900 102.1203209  78.4523743  70.3302184
 101.2840522  78.7898429  70.6511458 101.9807979  78.3172723  69.3929321
  96.9543899  81.3997935  75.4573852  96.7568299  80.8067295  74.7324919
  96.3990563  81.0950145  76.1749791 102.8732982  79.9098101  75.3358824
 102.0600848  80.2092272  75.7424016 103.3691977  79.5153790  76.0533306
  99.4490124  80.9261969  73.1414804  98.5187713  80.8646424  73.3584766
  99.5447596  80.4037921  72.3451446  99.3675674  77.4516781  75.7293046
  99.6282491  78.3662115  75.6202206 100.1892846  76.9841224  75.8789659
 101.9941590  78.2970970  67.5300090 101.1171056  78.1759771  67.1662337
 102.4699343  77.5057049  67.2778979  93.5143730  83.0848130  77.6241598
  94.2014770  82.7709860  77.0362613  93.3591859  83.9889495  77.3508849
  93.0911706  81.1648723  79.8959065  93.1295806  80.6312314  80.6896183
  92.5851999  80.6383929  79.2770042  96.7220284  79.8912825  72.9712996
  97.0173725  78.9823504  72.9180050  95.8208319  79.8700565  72.6493998
 100.2514531  77.9668822  78.9540545  99.5301116  78.5804790  78.8148018
 101.0407786  78.5026587  78.8757191  98.4508125  77.5726923  73.0952321
  98.1220831  76.6924302  72.9127427  98.8047496  77.5174592  73.9828710
 101.5649948  77.8599893  73.4627799 101.9046021  78.3885814  72.7406407
 102.0122069  78.1980299  74.2386365 102.6711777  87.4776438  72.5834515
 102.8199898  88.1611902  71.9301188 103.4778221  87.4581528  73.0983971
 100.4264410  83.5041615  73.5895584 100.1810452  82.6003945  73.7875794
 100.5960325  83.5058766  72.6475062  99.6960058  79.2369973  71.0881746
  99.0029303  79.3114328  70.4321782  99.4511810  78.4730317  71.6103263
  95.6574839  80.5541721  77.7816247  95.3377623  79.7007029  77.4890621
  95.1108267  80.7690299  78.5374214  46.6819103  -4.0351098  65.5863592
  46.9215701  -3.4032573  66.2642611  45.8388300  -4.3863058  65.8728951
  56.1439566   1.5064395  65.4010351  56.9360858   1.1655219  64.9856650
  56.3836217   1.6159370  66.3212504  64.1774693   3.6784171  57.8740595
  63.5262673   4.2638251  57.4874609  64.9719056   4.2090366  57.9335632
  58.1030320   0.7673308  58.2727729  58.8761196   0.2202295  58.1340605
  58.4555719   1.6317557  58.4842191  59.9415363   2.0949690  71.4794629
  59.6505229   2.9995321  71.3641295  60.5772347   2.1366218  72.1938698
  59.8826028   8.5455426  61.4415390  59.8050058   9.4963251  61.5203871
  59.2787671   8.2001299  62.0990316  58.8725827   0.5144966  66.2149023
  59.4427184   0.9432234  65.5766507  59.4633939   0.2327550  66.9133208
  62.4416379   2.2369471  70.2941949  62.5060812   2.6989879  71.1300121
  61.7327303   1.6066836  70.4224259  62.1564397   3.9037579  60.1620930
  62.0210072   4.7489115  60.5905778  62.6974209   4.1056857  59.3986864
  55.6093794   1.4213017  60.7348855  56.1218315   2.2156267  60.8854420
  56.2616507   0.7239307  60.6682456  57.4188679   4.5378773  62.8171608
  57.5955307   5.4596738  62.6292592  58.2145512   4.2237193  63.2465988
  63.7832873   4.5261145  74.2921272  63.3396727   3.7397524  73.9742176
  64.4450087   4.7140296  73.6265163  58.5419994   6.0556947  68.8181950
  59.0927419   5.9274010  68.0458944  57.7031470   6.3551836  68.4676843
  65.8814111   4.8063945  72.3202673  65.8632587   5.6272826  71.8282942
  66.8034031   4.6818021  72.5452814  62.3387165   2.3208075  73.1626181
  62.8715502   1.5596363  72.9325489  61.8101246   2.0281727  73.9050336
  53.5742711  -0.2498329  61.5108425  54.4117933   0.1598680  61.2942133
  53.7520979  -1.1898887  61.4808619  64.7560557   7.9771785  56.5976653
  64.0822256   8.2803482  57.2061611  65.1426379   8.7800865  56.2482110
  66.7032918   4.8169959  62.9044942  66.9955893   5.3775016  62.1857308
  67.2131539   5.1098520  63.6598101  61.6666544   5.5950310  63.9938396
  61.6242722   5.8211156  63.0646928  62.5829242   5.3613684  64.1424197
  59.7832344   2.4713339  63.7900358  60.5772943   1.9763659  63.5882933
  59.0724037   1.9431202  63.4268064  64.6027189   4.8531434  68.1412726
  64.6564211   5.4222371  68.9090442  63.7341970   5.0233319  67.7766763
  62.3603620   3.0442361  67.4698195  62.2214706   2.6761145  68.3424133
  61.5718217   3.5590000  67.2982153  62.9551772   8.1451457  58.8123732
  63.1303528   7.6739500  59.6269355  62.2684560   8.7717223  59.0404993
  63.9108835   2.4223963  64.8587033  63.5758668   2.3824733  65.7544683
  63.4112781   1.7568679  64.3857443  68.5022159   4.4778906  72.7929873
  68.4434705   3.7938126  72.1260456  68.9041677   5.2197896  72.3410499
  57.5212858  11.2940820  65.5863592  57.7609456  11.9259344  66.2642611
  56.6782054  10.9428860  65.8728951  50.1568713  -1.2257418  64.3486904
  50.8439753  -1.5395688  63.7607920  50.0016842  -0.3216053  64.0754156
  62.0340719   7.1019942  67.9905096  61.9610891   7.9074914  68.5024401
  61.5918113   7.3011908  67.1653117  61.8230499   6.3391712  61.5007918
  61.0398021   6.8813393  61.5946142  62.5223244   6.8565692  61.9002159
  64.4939403   7.0006777  70.1463255  65.2067375   7.6354241  70.0739156
  64.0029432   7.0970642  69.3303257  59.5451316   4.7501220  70.9668825
  60.2460776   5.3837703  71.1198220  59.0746431   5.0915952  70.2064465
  67.6705712   3.0919170  59.2516733  67.9465556   2.9775764  60.1610607
  66.8010211   2.6936655  59.2128906  64.3059776   7.3405521  62.8949546
  64.4882171   6.5227177  63.3577298  65.1292762   7.5573213  62.4574436
  64.6401942   6.2673706  60.1564595  65.1689708   5.7566160  59.5434757
  64.9030161   5.9516236  61.0210128  55.1419035   4.2837575  67.8999928
  55.7272471   3.5381263  68.0327832  54.9443873   4.5941532  68.7836592
  57.9957690   7.3188822  62.9162371  57.3268065   7.8034950  62.4326411
  57.8570559   7.5658043  63.8305749  62.1362958   9.3532566  69.5145029
  62.6881266   9.5164187  70.2794114  62.4769152   9.9437004  68.8425054
  66.9873833   4.1793823  75.3693683  67.5313737   4.7923782  74.8748638
  66.4060678   4.7373402  75.8860696  65.2731346   7.3014541  66.5008711
  65.1482485   6.5004281  65.9919657  65.9310437   7.7960735  66.0122681
  67.3366254   5.1023562  68.1288261  66.3896590   4.9828913  68.0566588
  67.6849027   4.2146060  68.2114523  64.3412687   4.8976278  64.3292613
  64.1937650   3.9692985  64.5100183  65.1666181   4.9196368  63.8449689
  67.9446809   5.7204836  65.4157486  68.8693357   5.5147698  65.2781937
  67.7762113   5.4721238  66.3246828  67.7342125   6.2390504  60.7719578
  67.9079003   5.6736926  60.0193430  68.2271017   7.0391399  60.5899068
  53.5519085  -1.7494827  68.8383136  53.0072553  -0.9735019  68.9703411
  54.4298435  -1.4024023  68.6802258  68.7217298   5.5557268  57.8716476
  69.4168202   6.1763961  58.0903791  69.0640448   4.7052620  58.1468854
  62.2828770   6.9191048  71.5293683  62.5915896   6.6740194  72.4016383
  63.0804252   7.1237686  71.0412554  62.3049382   9.0728957  63.7599060
  61.8654372   8.5805336  64.4531917  63.0557499   8.5301925  63.5191135
  54.7841721   5.2640498  63.7623688  55.6099741   4.9644270  63.3822331
  54.4335773   4.4948120  64.2113477  59.7523254   4.6166966  65.8321362
  59.1303263   3.9537671  65.5323589  60.4228121   4.6428098  65.1495009
  52.9850326   3.1826824  64.7212622  52.1482234   2.7548999  64.5396623
  52.9573971   3.3759268  65.6583413  59.3136761   3.1670890  59.3079822
  59.4624881   3.8506354  58.6546495  60.1203204   3.1475980  59.8229278
  62.8132166   5.6619020  56.7791569  62.2406133   6.2809207  56.3262041
  63.3864960   6.2118382  57.3131491  66.0329426   5.9456170  57.9100152
  66.9660099   5.8801732  58.1133027  65.9452639   6.7812437  57.4514684
  68.6617443   5.2622041  54.8704099  68.5831074   4.9281904  55.7639857
  69.4827110   5.7543808  54.8695572  52.1688082  -0.1360916  66.4754675
  51.4751554  -0.5506963  65.9624630  52.9161073  -0.0940379  65.8788094
  54.0824825  -0.2042662  64.3520690  54.0595513  -0.1054975  63.4002573
  54.3925461   0.6422489  64.6737856  56.7412203   1.8533493  68.4667304
  57.6955456   1.8217435  68.3997236  56.5424726   1.3924117  69.2817530
  57.3311585   0.4234609  71.0338102  58.1504474   0.9178688  71.0572939
  57.6048393  -0.4933423  71.0055670  55.0962432   7.3953112  65.4837502
  54.9616899   6.6353513  64.9175500  54.6794494   8.1194012  65.0166291
  66.2321395   2.5790036  54.4914078  66.9357245   2.7840038  55.1071733
  65.5084043   3.1466798  54.7563161  58.2531557   8.2922429  65.6955945
  58.1363942   9.2367862  65.5934635  57.4324004   7.9895991  66.0841744
  59.2786072   8.9450691  68.9111873  60.1813318   8.9774302  69.2278368
  59.0523442   8.0151142  68.9258209  61.0339674   7.6981678  65.5721952
  60.0835305   7.6983539  65.4586324  61.3372160   6.9514412  65.0557987
  76.7692367  13.5342216  66.6367714  77.4070777  13.4148964  65.9331055
  76.6513210  14.4823060  66.6955667  73.5782073  13.4869644  66.5729239
  73.2400585  13.3710709  65.6849774  74.4471842  13.0860809  66.5530245
  69.4368889  15.3405121  62.5626130  68.8733754  15.2495058  61.7942418
  69.3221284  14.5205025  63.0428623  74.0601856  14.6404496  72.5315445
  74.0490497  14.2457294  71.6595948  74.2222496  13.9070569  73.1249216
  66.9833321  16.8356312  65.4010351  67.7754613  16.4947137  64.9856650
  67.2229971  16.9451287  66.3212504  75.0168448  19.0076088  57.8740595
  74.3656428  19.5930169  57.4874609  75.8112811  19.5382283  57.9335632
  68.9424075  16.0965226  58.2727729  69.7154951  15.5494213  58.1340605
  69.2949474  16.9609475  58.4842191  70.7809117  17.4241608  71.4794629
  70.4898983  18.3287239  71.3641295  71.4166102  17.4658135  72.1938698
  71.7065324  14.8018456  68.0695988  72.3028897  14.5774479  67.3552951
  71.7640296  14.0603202  68.6721436  71.2790353  12.2557892  55.9046179
  71.5315873  11.7339413  55.1429642  70.3414912  12.0924037  56.0072863
  76.3233636  11.2593670  63.7120922  77.1096725  10.8413093  63.3611339
  76.5872340  12.1639762  63.8802571  76.4943713  16.6966520  58.4109579
  75.8589546  16.7701147  59.1230484  76.1641119  17.2860119  57.7328659
  81.7242063  11.1968903  64.6153901  82.4567235  10.6268120  64.8491730
  80.9681418  10.8090504  65.0560407  70.9986641  14.1585998  58.1070554
  70.8822900  13.4830901  58.7751639  71.1088901  13.6718372  57.2902707
  73.3418182  13.6196145  61.8117243  72.9776390  13.0926766  62.5230165
  74.1985298  13.2294614  61.6383729  72.9823669   8.6486044  56.8078592
  73.1498072   9.5166281  57.1749063  72.7920838   8.8113326  55.8839881
  75.7399003  17.1103023  68.4744422  75.4399726  18.0128062  68.3660230
  75.3950062  16.8435207  69.3265575  69.1911484  13.5616820  64.5081127
  68.2661981  13.4293034  64.7158819  69.4395897  14.3411039  65.0051069
  79.1396146   9.6285564  66.1541860  78.2313024   9.5600972  65.8600621
  79.0883742  10.1057508  66.9823685  72.9612890  11.1043702  57.7925259
  72.8412515  11.5500753  58.6310739  72.2665479  11.4529020  57.2338797
  66.5520295  13.2050094  65.3424916  66.6812676  13.4584573  66.2564328
  65.8717746  13.7977802  65.0229571  70.7219782  23.8747344  61.4415390
  70.6443812  24.8255169  61.5203871  70.1181426  23.5293216  62.0990316
  73.2137012  11.0475209  74.0976757  72.4370346  11.6069129  74.0879622
  73.8527575  11.5331992  74.6191627  81.0057793   7.8302002  67.9319734
  80.3632173   8.1234535  67.2859528  80.5012721   7.7154922  68.7372930
  78.6597956  11.5765175  58.6205593  79.5715813  11.8092562  58.4453290
  78.1507603  12.1602219  58.0580671  71.4683384  13.8560662  73.6594724
  72.2098069  14.3945706  73.3829548  70.7620370  14.4826951  73.8166276
  76.9438724  15.9989803  72.2566885  77.3522080  15.5572213  71.5121518
  76.2215986  15.4242430  72.5101078  73.2969794  10.9362410  69.6300442
  74.1430989  11.3601823  69.7735091  73.2368432  10.2796034  70.3239005
  77.2667539  16.5590994  66.0119174  76.6376401  16.7236708  65.3095242
  76.8793201  16.9732603  66.7830138  81.1456771  17.4945431  63.3663538
  80.4607809  17.8744333  62.8160571  81.2300620  18.1040758  64.0995486
  76.4469239   8.5966778  71.2881616  76.2030171   9.3508839  70.7515892
  76.7229170   8.9752126  72.1228863  78.4007702  15.1405390  69.9658882
  78.6124597  15.7837150  69.2893263  78.3537450  14.3067707  69.4980812
  76.0033931   7.7523211  66.8695454  75.1418410   8.0504465  67.1612191
  76.0296366   7.9693610  65.9376486  72.8195501  16.2965402  63.2769259
  73.2833846  16.5753105  62.4873882  72.5552299  15.3948846  63.0942350
  69.7119582  15.8436883  66.2149023  70.2820939  16.2724152  65.5766507
  70.3027693  15.5619468  66.9133208  71.7564387  12.4188554  60.0858825
  72.4588430  12.8709598  60.5532751  71.4245015  11.7772373  60.7138718
  70.2044748  11.0100311  74.4610034  69.5743409  11.6916592  74.6945431
  70.0980836  10.8983392  73.5163172  65.4989721  10.6772107  65.3875958
  64.7088775  10.9329635  64.9116069  65.9900968  11.4920445  65.4927999
  79.5153530  18.0177346  68.1381239  80.3370974  17.6157533  67.8563921
  79.5115933  17.9145580  69.0897355  67.4504466  11.0416686  62.3459435
  66.6535629  11.1535380  62.8642930  67.2230058  11.3803338  61.4800325
  73.2810134  17.5661389  70.2941949  73.3454566  18.0281796  71.1300121
  72.5721057  16.9358754  70.4224259  63.7827424  10.9302597  67.8190949
  64.0335462  11.8149607  68.0848525  64.3186972  10.7507199  67.0466041
  87.6059523  14.3616094  64.4866210  86.8523232  13.7923492  64.3310215
  87.7407064  14.3278759  65.4336845  72.9958151  19.2329497  60.1620930
  72.8603826  20.0781032  60.5905778  73.5367964  19.4348774  59.3986864
  69.4825491   5.3121077  76.8235285  69.0892436   4.7587275  77.4982929
  70.2991631   5.6231655  77.2141802  66.4487549  16.7504935  60.7348855
  66.9612069  17.5448185  60.8854420  67.1010261  16.0531225  60.6682456
  68.2582433  19.8670691  62.8171608  68.4349062  20.7888656  62.6292592
  69.0539267  19.5529110  63.2465988  72.3993452   6.7278956  74.4155542
  73.1403165   7.3286109  74.3360004  72.6311375   5.9856593  73.8573584
  67.5434790  11.9135323  72.6933771  67.4288305  11.0120580  72.9940870
  66.6879308  12.1599020  72.3418588  74.6226628  19.8553063  74.2921272
  74.1790482  19.0689442  73.9742176  75.2843841  20.0432214  73.6265163
  69.3813749  21.3848865  68.8181950  69.9321174  21.2565928  68.0458944
  68.5425225  21.6843754  68.4676843  76.7207866  20.1355863  72.3202673
  76.7026341  20.9564744  71.8282942  77.6427786  20.0109938  72.5452814
  73.1780920  17.6499993  73.1626181  73.7109257  16.8888281  72.9325489
  72.6495001  17.3573644  73.9050336  64.4136465  15.0793589  61.5108425
  65.2511687  15.4890597  61.2942133  64.5914733  14.1393031  61.4808619
  76.3100898  12.7468670  57.1992258  75.7947521  13.5173274  57.4380646
  76.0378206  12.0733806  57.8225320  73.8948009   7.5918370  62.2577497
  73.0389605   7.2025221  62.0783135  74.3074960   7.6710331  61.3977282
  71.6690041   5.2103443  65.6635238  72.5343038   5.0146252  65.3041128
  71.7367550   4.9813795  66.5904595  81.2835172  15.5001024  59.1345432
  80.5064614  15.1612184  58.6900594  81.9626653  15.5053647  58.4600397
  76.0987201  10.6195762  59.0252039  75.7937336  10.9341911  59.8762183
  77.0517643  10.6977182  59.0679372  74.5433633  16.7785985  60.6744993
  74.0154994  16.0438745  60.3618231  74.0421135  17.5560661  60.4284962
  79.5226479  14.9735006  65.7912040  78.8650153  15.6634267  65.8792168
  80.3266878  15.3631437  66.1346026  69.2752360   7.4405651  63.0351605
  69.8496112   7.2180833  62.3024798  69.8623343   7.5094346  63.7880206
  78.3331937  13.3279378  63.8415982  78.8463819  13.9609370  64.3437691
  78.9833161  12.7280574  63.4759342  69.6021947   9.4710112  57.0547490
  68.7659260   9.8084799  57.3756765  69.4626717   9.3359092  56.1174627
  72.6886233  14.5966195  53.6779967  71.7813294  14.3655449  53.8771115
  73.1857265  13.8003815  53.8653948  75.5954312  23.3063703  56.5976653
  74.9216010  23.6095399  57.2061611  75.9820134  24.1092783  56.2482110
  74.8112768  10.8028834  66.0874322  73.8935330  11.0243781  65.9296010
  75.2272912  10.8775144  65.2286029  75.5947816  12.2020249  61.2177002
  76.3419635  12.7141647  60.9084124  75.8639406  11.8804302  62.0781396
  73.8674466  14.6978790  58.2003957  72.9585685  14.4137823  58.2976426
  73.8969550  15.1177869  57.3407263  79.0993734  18.3085380  61.9695124
  78.6456061  17.4676290  62.0260315  78.4687700  18.9446778  62.3069904
  78.0426653   9.2377366  63.1995792  77.3049410   8.7254752  63.5306034
  78.2953427   8.7977747  62.3879068  77.5426673  20.1461876  62.9044942
  77.8349647  20.7066933  62.1857308  78.0525293  20.4390437  63.6598101
  64.4362637  12.4184304  62.1819159  64.2387036  11.8253665  61.4570225
  63.8809301  12.1136515  62.8995098  72.4159360  12.3107411  64.3013752
  72.4707970  11.3581247  64.2256229  71.6050562  12.4666850  64.7855050
  73.5650554  16.2387534  55.5392035  73.1269984  15.5223393  55.0797673
  74.3060995  16.4663649  54.9777127  70.3551720  10.9284471  62.0604131
  69.5419586  11.2278641  62.4669323  70.8510714  10.5340159  62.7778613
  72.5060298  20.9242227  63.9938396  72.4636477  21.1503074  63.0646928
  73.4222997  20.6905602  64.1424197  75.9525932  11.3926295  70.8919025
  76.3075320  11.6197768  71.7513490  76.5998063  11.7244672  70.2696280
  81.6823669  14.5144731  61.5968354  81.5441567  14.7046327  60.6689543
  81.3259888  15.2764114  62.0536405  69.8465795   8.5002826  67.6765366
  70.4865174   8.3591585  66.9788329  69.0143325   8.2137339  67.3003968
  81.7093048  16.5821258  66.6079625  82.1429555  16.4896547  67.4562679
  82.4224629  16.5578758  65.9699641  70.6226099  17.8005256  63.7900358
  71.4166697  17.3055577  63.5882933  69.9117791  17.2723120  63.4268064
  75.4420943  20.1823352  68.1412726  75.4957966  20.7514288  68.9090442
  74.5735725  20.3525237  67.7766763  66.9308862  11.9448338  59.8660111
  66.0006450  11.8832794  60.0830073  67.0266334  11.4224291  59.0696752
  66.8494411   8.4703151  62.4538353  67.1101229   9.3848484  62.3447513
  67.6711584   8.0027594  62.6034965  68.3219337   9.8840908  69.6237177
  68.9942390   9.6758270  68.9749826  67.4949123   9.6862994  69.1842409
  82.5708598  16.6244959  69.1412511  82.7644488  17.5290769  69.3871786
  82.4709216  16.1652378  69.9751096  74.2244909   6.5102849  71.6402838
  73.5772824   7.2092799  71.5467314  74.9945924   6.9438993  72.0079086
  77.6323707  16.7751701  74.7153391  77.4809213  16.5462253  73.7983475
  77.6228386  17.7322303  74.7284736  74.4009043  14.3483614  69.6999658
  75.3301103  14.4994774  69.5268625  73.9800073  14.4367635  68.8448304
  73.1997375  18.3734278  67.4698195  73.0608461  18.0053063  68.3424133
  72.4111971  18.8881918  67.2982153  73.7945527  23.4743375  58.8123732
  73.9697282  23.0031418  59.6269355  73.1078315  24.1009141  59.0404993
  74.7502590  17.7515881  64.8587033  74.4152423  17.7116651  65.7544683
  74.2506536  17.0860597  64.3857443  68.7246834  13.1583511  70.3839614
  68.5866632  12.4263750  70.9851153  69.6351757  13.0692411  70.1023802
  77.6861782  15.0971916  55.1324093  77.0690952  14.3718744  55.0357145
  77.2178270  15.8581276  54.7891167  71.3529135  12.8703471  69.8723294
  72.0628753  12.2296663  69.8309912  71.3098443  13.1216365  70.7949475
  79.3415913  19.8070824  72.7929873  79.2828459  19.1230044  72.1260456
  79.7435432  20.5489814  72.3410499  70.0658069   9.8568688  71.6918933
  69.5295426   9.4059427  72.3440530  69.4774777   9.9914597  70.9489398
  68.3606612  26.6232738  65.5863592  68.6003210  27.2551262  66.2642611
  67.5175809  26.2720778  65.8728951  69.4760328   9.3157340  54.2545397
  68.5989794   9.1946141  53.8907644  69.9518081   8.5243418  54.0024286
  79.3433321  17.7710408  71.0243853  78.4560099  17.4336330  71.1470252
  79.9131872  17.0393439  71.2612618  60.9962468  14.1034500  64.3486904
  61.6833507  13.7896230  63.7607920  60.8410596  15.0075864  64.0754156
  65.7997190   8.9924696  68.7771928  65.7155379   8.3850366  68.0422338
  64.9779896   9.4833714  68.7781424  72.8734474  22.4311860  67.9905096
  72.8004645  23.2366832  68.5024401  72.4311867  22.6303826  67.1653117
  72.6624254  21.6683630  61.5007918  71.8791775  22.2105310  61.5946142
  73.3616999  22.1857610  61.9002159  75.9720904   7.4778260  64.1442123
  76.4689603   6.7248222  63.8243193  75.2007885   7.5142576  63.5785332
  83.8250661  13.1818625  65.7860414  83.8140537  14.0643341  65.4154348
  82.9568041  12.8290176  65.5914952  75.3333157  22.3298694  70.1463255
  76.0461130  22.9646159  70.0739156  74.8423186  22.4262560  69.3303257
  77.0550684  16.2349947  61.7180546  76.1206963  16.3551409  61.5485251
  77.2327353  15.3322414  61.4540556  72.5555872   9.6195643  63.8713808
  72.1853660   9.0666683  64.5594713  73.0514965   9.0153776  63.3188808
  80.4423236  12.0767266  62.2530580  80.9083688  12.9095258  62.1790883
  80.8930736  11.6112248  62.9575839  70.3845071  20.0793138  70.9668825
  71.0854530  20.7129621  71.1198220  69.9140186  20.4207869  70.2064465
  78.5099467  18.4211087  59.2516733  78.7859311  18.3067682  60.1610607
  77.6403966  18.0228572  59.2128906  78.1846357  12.6337745  68.7921376
  77.5317807  12.8813653  68.1373829  78.5626737  11.8201883  68.4583853
  75.1453531  22.6697438  62.8949546  75.3275925  21.8519094  63.3577298
  75.9686517  22.8865131  62.4574436  75.4795696  21.5965623  60.1564595
  76.0083463  21.0858078  59.5434757  75.7423916  21.2808154  61.0210128
  74.2333930  13.3757556  75.2787413  73.5574567  13.2751685  75.9489788
  75.0561564  13.2196770  75.7423410  65.9812789  19.6129493  67.8999928
  66.5666226  18.8673181  68.0327832  65.7837627  19.9233449  68.7836592
  68.8351444  22.6480740  62.9162371  68.1661820  23.1326868  62.4326411
  68.6964314  22.8949961  63.8305749  60.5730444  12.1835093  66.6204371
  60.6114543  11.6498684  67.4141489  60.0670737  11.6570298  66.0015349
  72.9756713  24.6824484  69.5145029  73.5275021  24.8456105  70.2794114
  73.3162906  25.2728921  68.8425054  67.9521206   7.0299633  70.1166914
  68.0162533   7.8914464  69.7044311  67.8888326   6.4173635  69.3839272
  67.4273479   9.1022766  73.7639948  68.0545517   8.7199843  74.3777472
  66.5701397   8.8836968  74.1295640  77.8267587  19.5085741  75.3693683
  78.3707491  20.1215699  74.8748638  77.2454432  20.0665320  75.8860696
  64.2039021  10.9099195  59.6958303  64.4992462  10.0009873  59.6425356
  63.3027057  10.8886935  59.3739305  76.1125100  22.6306459  66.5008711
  75.9876240  21.8296199  65.9919657  76.7704191  23.1252652  66.0122681
  67.7333268   8.9855192  65.6785851  67.0119854   9.5991159  65.5393325
  68.5226524   9.5212956  65.6002497  78.1760009  20.4315479  68.1288261
  77.2290344  20.3120830  68.0566588  78.5242782  19.5437977  68.2114523
  70.5359582   6.3209618  71.9526503  71.0593984   6.5671915  72.7152812
  70.3171915   7.1529653  71.5329640  65.9326863   8.5913293  59.8197628
  65.6039569   7.7110672  59.6372734  66.2866234   8.5360961  60.7074017
  75.1806442  20.2268195  64.3292613  75.0331404  19.2984903  64.5100183
  76.0059935  20.2488286  63.8449689  69.0468686   8.8786263  60.1873106
  69.3864759   9.4072184  59.4651714  69.4940807   9.2166669  60.9631672
  78.7840564  21.0496754  65.4157486  79.7087111  20.8439616  65.2781937
  78.6155867  20.8013155  66.3246828  71.7412127   7.2623313  69.6376174
  71.4008947   6.4631126  70.0396853  71.0351133   7.5625024  69.0653007
  71.0336833   7.3760884  58.3866398  71.7545196   7.7542137  57.8830115
  70.4102137   8.0949761  58.4901376  75.1767956   8.0806033  59.3224731
  75.3931571   8.9630671  59.0213559  74.6962023   7.6892246  58.5930373
  69.9167178  11.0391746  65.8995475  69.7711758  11.3532049  66.7919757
  69.4392381  11.6576647  65.3466374  71.7763560   8.0294294  65.9476365
  71.7625129   7.1335388  65.6108663  72.4935989   8.0364958  66.5814651
  73.6289691   8.4631634  67.9929492  73.3707469   9.3848705  67.9913823
  73.0974731   8.0662069  68.6829956  78.5735880  21.5682422  60.7719578
  78.7472757  21.0028844  60.0193430  79.0664771  22.3683316  60.5899068
  64.3912840  13.5797091  68.8383136  63.8466308  14.3556899  68.9703411
  65.2692190  13.9267895  68.6802258  71.1800456   6.9108675  61.2163935
  71.3016368   5.9825321  61.4154822  70.8902499   6.9247361  60.3042250
  84.4275271  14.3318845  62.3909877  84.8706417  13.5826170  61.9929001
  83.5501781  14.3228981  62.0083609  79.5611052  20.8849186  57.8716476
  80.2561957  21.5055879  58.0903791  79.9034202  20.0344537  58.1468854
  65.1778862  12.7066987  71.7313293  64.4360598  12.8549622  72.3177924
  64.8571606  12.9675253  70.8680043  81.4602475  18.3348892  59.4003807
  81.9853800  18.6736164  58.6753127  81.3724828  17.3995907  59.2166941
  73.1222524  22.2482965  71.5293683  73.4309651  22.0032112  72.4016383
  73.9198006  22.4529604  71.0412554  73.1443136  24.4020875  63.7599060
  72.7048127  23.9097254  64.4531917  73.8951253  23.8593842  63.5191135
  65.6235475  20.5932416  63.7623688  66.4493495  20.2936188  63.3822331
  65.2729527  19.8240038  64.2113477  70.5917008  19.9458884  65.8321362
  69.9697018  19.2829589  65.5323589  71.2621875  19.9720016  65.1495009
  63.8244080  18.5118742  64.7212622  62.9875989  18.0840917  64.5396623
  63.7967726  18.7051185  65.6583413  70.6641536   8.4240672  75.4253868
  70.7129691   9.3002795  75.0431637  71.2064050   7.8818065  74.8525511
  81.1496382  18.9681795  74.7055005  80.3591925  18.9505934  74.1659504
  80.9129736  19.5070089  75.4604041  81.2694257  15.8174262  72.0187733
  81.3192262  15.6524269  72.9603256  81.1608180  14.9501521  71.6285614
  70.1530515  18.4962807  59.3079822  70.3018636  19.1798272  58.6546495
  70.9596959  18.4767897  59.8229278  78.5598019  11.8005190  73.3347040
  79.4607882  11.6611654  73.0431038  78.6345993  11.9659644  74.2745217
  72.8940824   9.1772044  72.1800226  72.0244134   9.4705610  71.9082815
  73.1300305   9.7612489  72.9007490  82.7712453  18.2371203  72.2629755
  82.4797262  18.6001184  73.0993216  82.1584585  17.5238211  72.0843087
  83.9708136  15.8024083  64.7832325  84.8055027  16.2413887  64.9469885
  84.1067265  15.3262736  63.9640571  81.0199642  13.3603818  70.7309813
  81.4953763  13.5531464  69.9228664  80.0965207  13.4163004  70.4853196
  67.9083148  14.5227985  60.3140891  67.6629190  13.6190315  60.5121101
  68.0779063  14.5245135  59.3720369  67.1778796  10.2556342  57.8127052
  66.4848041  10.3300697  57.1567088  66.9330548   9.4916686  58.3348569
  73.6525921  20.9910938  56.7791569  73.0799888  21.6101125  56.3262041
  74.2258714  21.5410299  57.3131491  79.7201311  10.2369578  68.9638118
  80.6718734  10.3367675  68.9850342  79.5504761   9.4447846  69.4736203
  77.7415690   7.3225161  69.1497519  77.1465622   7.6030174  68.4544008
  77.4565387   7.8119062  69.9214260  76.8723181  21.2748088  57.9100152
  77.8053854  21.2093650  58.1133027  76.7846393  22.1104355  57.4514684
  79.5011197  20.5913958  54.8704099  79.4224829  20.2573822  55.7639857
  80.3220864  21.0835726  54.8695572  82.1989388  13.4575697  68.0780418
  82.1665709  12.5191698  68.2640102  82.8090012  13.5359734  67.3446243
  74.0372719  12.3271750  54.1207622  74.9831824  12.1977959  54.1896040
  73.6586964  11.5886412  54.5977050  82.3483877  10.2486741  68.1238701
  81.8322926   9.4645198  67.9368630  83.2323825   9.9205458  68.2885221
  88.0165938  14.5191704  67.2186455  88.7469327  14.2576992  67.7794158
  87.4072884  13.7820426  67.2588523  86.0981235  12.6599567  67.8160906
  85.3714399  12.5255532  67.2077398  85.6828522  12.9676396  68.6217624
  73.9211412  16.3789497  75.5808279  74.8414421  16.5568096  75.7748325
  73.8860995  15.4345542  75.4287978  72.2215636  10.2521727  54.0562507
  71.3147092   9.9554840  54.1325221  72.4991617   9.9551545  53.1896793
  63.1393577  11.5728090  64.5061554  62.8196361  10.7193398  64.2135928
  62.5927005  11.7876668  65.2619521  66.9173484  14.2890531  68.2231060
  67.1359494  15.2207639  68.2419094  67.3299258  13.9298506  69.0085864
  71.7901350   9.8623737  77.6133809  71.6898077  10.8118094  77.5445900
  71.5722892   9.5341976  76.7409879  70.9914421   7.1108662  54.1974486
  71.8533585   7.4363560  54.4570304  71.1764765   6.3240158  53.6847552
  63.0081837  15.1931002  66.4754675  62.3145308  14.7784955  65.9624630
  63.7554828  15.2351538  65.8788094  71.6532620  13.2920876  76.4298871
  71.1699701  14.0921236  76.6362760  71.7393559  13.3028821  75.4766315
  64.9218579  15.1249256  64.3520690  64.8989267  15.2236943  63.4002573
  65.2319216  15.9714406  64.6737856  67.5805957  17.1825411  68.4667304
  68.5349211  17.1509353  68.3997236  67.3818481  16.7216034  69.2817530
  68.1705339  15.7526527  71.0338102  68.9898228  16.2470605  71.0572939
  68.4442147  14.8358495  71.0055670  77.9271936   8.1437279  60.3966058
  77.0397791   8.4286930  60.1786252  78.3425925   7.9831042  59.5493335
  81.2786472   8.1683800  64.1120397  82.0546862   8.6580252  64.3845014
  80.5534606   8.5941854  64.5692266  65.9356186  22.7245030  65.4837502
  65.8010654  21.9645431  64.9175500  65.5188248  23.4485930  65.0166291
  77.0715149  17.9081954  54.4914078  77.7750999  18.1131956  55.1071733
  76.3477798  18.4758715  54.7563161  77.9012959  13.6591815  60.6116348
  77.8448161  14.1160366  59.7723980  78.4541302  12.8982499  60.4339191
  81.7117765   9.4481547  61.4366467  81.4554699   9.0478182  62.2674675
  81.0870633  10.1625341  61.3116606  86.0230103  12.1877620  63.9437759
  85.4629661  12.2570809  64.7169321  85.4173606  12.0118605  63.2237255
  69.0925312  23.6214347  65.6955945  68.9757696  24.5659780  65.5934635
  68.2717758  23.3187909  66.0841744  78.9801846  18.3464483  56.5412538
  79.8147450  17.9145681  56.3590012  78.8186189  18.1746496  57.4689432
  78.6347739  14.8496596  57.9068877  78.5796542  14.6840868  56.9657321
  78.0093794  15.5572629  58.0631067  63.4240254  10.0864660  71.7330299
  64.0699117   9.5763614  72.2217524  63.2157405  10.8233342  72.3073724
  75.9493646  17.1545508  77.2322440  76.8184805  17.3286160  76.8709075
  75.4700397  17.9739925  77.1098169  70.1179826  24.2742609  68.9111873
  71.0207073  24.3066219  69.2278368  69.8917196  23.3443060  68.9258209
  71.8733428  23.0273596  65.5721952  70.9229059  23.0275457  65.4586324
  72.1765914  22.2806330  65.0557987  67.7637745   7.2332278  75.8305313
  68.6269206   6.8769082  76.0408638  67.1903155   6.8946172  76.5180718
  87.6086122  28.8634134  66.6367714  88.2464531  28.7440881  65.9331055
  87.4906964  29.8114978  66.6955667  84.4175828  28.8161562  66.5729239
  84.0794339  28.7002627  65.6849774  85.2865596  28.4152727  66.5530245
  80.2762644  30.6697038  62.5626130  79.7127509  30.5786975  61.7942418
  80.1615039  29.8496943  63.0428623  84.8995611  29.9696414  72.5315445
  84.8884252  29.5749212  71.6595948  85.0616250  29.2362486  73.1249216
  77.8227075  32.1648230  65.4010351  78.6148367  31.8239055  64.9856650
  78.0623726  32.2743205  66.3212504  85.8562202  34.3368006  57.8740595
  85.2050182  34.9222087  57.4874609  86.6506565  34.8674201  57.9335632
  79.7817829  31.4257143  58.2727729  80.5548705  30.8786130  58.1340605
  80.1343228  32.2901393  58.4842191  81.6202872  32.7533526  71.4794629
  81.3292738  33.6579156  71.3641295  82.2559856  32.7950053  72.1938698
  82.5459079  30.1310374  68.0695988  83.1422651  29.9066396  67.3552951
  82.6034050  29.3895120  68.6721436  82.1184107  27.5849809  55.9046179
  82.3709628  27.0631331  55.1429642  81.1808666  27.4215955  56.0072863
  87.1627390  26.5885588  63.7120922  87.9490479  26.1705011  63.3611339
  87.4266094  27.4931680  63.8802571  87.3337467  32.0258438  58.4109579
  86.6983300  32.0993065  59.1230484  87.0034874  32.6152037  57.7328659
  92.5635817  26.5260821  64.6153901  93.2960989  25.9560038  64.8491730
  91.8075173  26.1382421  65.0560407  81.8380396  29.4877915  58.1070554
  81.7216654  28.8122819  58.7751639  81.9482656  29.0010289  57.2902707
  84.1811937  28.9488062  61.8117243  83.8170144  28.4218683  62.5230165
  85.0379053  28.5586531  61.6383729  90.0861237  20.2382395  69.0748510
  89.7544562  21.1077806  68.8509725  89.4906851  19.9218679  69.7542540
  83.8217424  23.9777962  56.8078592  83.9891826  24.8458199  57.1749063
  83.6314593  24.1405244  55.8839881  86.5792757  32.4394941  68.4744422
  86.2793480  33.3419980  68.3660230  86.2343817  32.1727124  69.3265575
  80.0305239  28.8908738  64.5081127  79.1055735  28.7584952  64.7158819
  80.2789652  29.6702957  65.0051069  89.9789901  24.9577481  66.1541860
  89.0706778  24.8892890  65.8600621  89.9277497  25.4349426  66.9823685
  83.8006645  26.4335620  57.7925259  83.6806270  26.8792670  58.6310739
  83.1059233  26.7820937  57.2338797  77.3914050  28.5342011  65.3424916
  77.5206431  28.7876490  66.2564328  76.7111501  29.1269719  65.0229571
  81.5613537  39.2039261  61.4415390  81.4837567  40.1547086  61.5203871
  80.9575180  38.8585134  62.0990316  84.0530767  26.3767127  74.0976757
  83.2764101  26.9361047  74.0879622  84.6921330  26.8623910  74.6191627
  91.8451547  23.1593920  67.9319734  91.2025927  23.4526453  67.2859528
  91.3406476  23.0446840  68.7372930  89.4991711  26.9057093  58.6205593
  90.4109567  27.1384480  58.4453290  88.9901358  27.4894137  58.0580671
  82.3077139  29.1852580  73.6594724  83.0491823  29.7237624  73.3829548
  81.6014124  29.8118869  73.8166276  87.7832479  31.3281721  72.2566885
  88.1915835  30.8864131  71.5121518  87.0609740  30.7534348  72.5101078
  84.1363549  26.2654327  69.6300442  84.9824744  26.6893741  69.7735091
  84.0762186  25.6087952  70.3239005  88.1061293  31.8882911  66.0119174
  87.4770156  32.0528625  65.3095242  87.7186955  32.3024521  66.7830138
  91.9850525  32.8237349  63.3663538  91.3001563  33.2036250  62.8160571
  92.0694374  33.4332676  64.0995486  87.2862994  23.9258696  71.2881616
  87.0423926  24.6800756  70.7515892  87.5622924  24.3044043  72.1228863
  89.2401457  30.4697308  69.9658882  89.4518352  31.1129068  69.2893263
  89.1931205  29.6359625  69.4980812  86.8427686  23.0815129  66.8695454
  85.9812165  23.3796382  67.1612191  86.8690120  23.2985528  65.9376486
  83.6589255  31.6257319  63.2769259  84.1227601  31.9045022  62.4873882
  83.3946053  30.7240764  63.0942350  80.5513336  31.1728801  66.2149023
  81.1214693  31.6016069  65.5766507  81.1421448  30.8911386  66.9133208
  82.5958141  27.7480472  60.0858825  83.2982184  28.2001515  60.5532751
  82.2638770  27.1064291  60.7138718  81.0438503  26.3392228  74.4610034
  80.4137163  27.0208509  74.6945431  80.9374591  26.2275310  73.5163172
  76.3383475  26.0064024  65.3875958  75.5482529  26.2621553  64.9116069
  76.8294722  26.8212362  65.4927999  90.3547285  33.3469264  68.1381239
  91.1764728  32.9449451  67.8563921  90.3509688  33.2437498  69.0897355
  78.2898220  26.3708604  62.3459435  77.4929384  26.4827298  62.8642930
  78.0623813  26.7095256  61.4800325  84.1203888  32.8953307  70.2941949
  84.1848321  33.3573714  71.1300121  83.4114812  32.2650672  70.4224259
  74.6221178  26.2594515  67.8190949  74.8729216  27.1441525  68.0848525
  75.1580726  26.0799116  67.0466041  98.4453278  29.6908012  64.4866210
  97.6916986  29.1215410  64.3310215  98.5800819  29.6570677  65.4336845
  83.8351906  34.5621414  60.1620930  83.6997581  35.4072950  60.5905778
  84.3761718  34.7640692  59.3986864  80.3219245  20.6412994  76.8235285
  79.9286191  20.0879193  77.4982929  81.1385386  20.9523573  77.2141802
  77.2881303  32.0796852  60.7348855  77.8005824  32.8740103  60.8854420
  77.9404016  31.3823143  60.6682456  79.0976188  35.1962609  62.8171608
  79.2742816  36.1180573  62.6292592  79.8933021  34.8821028  63.2465988
  83.2387206  22.0570873  74.4155542  83.9796920  22.6578026  74.3360004
  83.4705129  21.3148511  73.8573584  78.3828544  27.2427241  72.6933771
  78.2682060  26.3412498  72.9940870  77.5273062  27.4890937  72.3418588
  85.4620382  35.1844981  74.2921272  85.0184236  34.3981359  73.9742176
  86.1237596  35.3724131  73.6265163  80.2207503  36.7140782  68.8181950
  80.7714928  36.5857846  68.0458944  79.3818979  37.0135671  68.4676843
  87.5601620  35.4647781  72.3202673  87.5420096  36.2856662  71.8282942
  88.4821540  35.3401856  72.5452814  84.0174674  32.9791910  73.1626181
  84.5503011  32.2180198  72.9325489  83.4888755  32.6865562  73.9050336
  87.1844369  18.0851976  68.6919823  86.8408639  18.9753618  68.6158934
  87.5523332  17.8953634  67.8289408  75.2530220  30.4085507  61.5108425
  76.0905442  30.8182515  61.2942133  75.4308488  29.4684949  61.4808619
  87.1494652  28.0760587  57.1992258  86.6341275  28.8465192  57.4380646
  86.8771960  27.4025723  57.8225320  84.7341763  22.9210288  62.2577497
  83.8783359  22.5317139  62.0783135  85.1468715  23.0002249  61.3977282
  86.2640910  20.4556631  66.6569056  85.7605705  20.4186767  65.8436862
  86.5571517  21.3649374  66.7165713  82.5083796  20.5395361  65.6635238
  83.3736792  20.3438170  65.3041128  82.5761304  20.3105713  66.5904595
  92.1228926  30.8292942  59.1345432  91.3458369  30.4904101  58.6900594
  92.8020407  30.8345565  58.4600397  86.9380955  25.9487679  59.0252039
  86.6331091  26.2633829  59.8762183  87.8911397  26.0269099  59.0679372
  85.3827387  32.1077903  60.6744993  84.8548749  31.3730662  60.3618231
  84.8814890  32.8852579  60.4284962  90.3620233  30.3026923  65.7912040
  89.7043908  30.9926185  65.8792168  91.1660632  30.6923355  66.1346026
  80.1146115  22.7697569  63.0351605  80.6889867  22.5472751  62.3024798
  80.7017097  22.8386264  63.7880206  89.1725692  28.6571296  63.8415982
  89.6857574  29.2901288  64.3437691  89.8226916  28.0572491  63.4759342
  80.4415702  24.8002030  57.0547490  79.6053014  25.1376717  57.3756765
  80.3020471  24.6651010  56.1174627  82.4168782  19.6438818  61.7626674
  81.7633195  19.3287835  61.1383289  82.3749257  19.0214558  62.4886497
  83.5279987  29.9258113  53.6779967  82.6207049  29.6947366  53.8771115
  84.0251019  29.1295732  53.8653948  86.4348066  38.6355620  56.5976653
  85.7609765  38.9387317  57.2061611  86.8213888  39.4384701  56.2482110
  85.6506523  26.1320751  66.0874322  84.7329084  26.3535698  65.9296010
  86.0666666  26.2067062  65.2286029  86.4341570  27.5312167  61.2177002
  87.1813389  28.0433564  60.9084124  86.7033160  27.2096220  62.0781396
  84.7068221  30.0270708  58.2003957  83.7979440  29.7429741  58.2976426
  84.7363304  30.4469786  57.3407263  89.9387488  33.6377297  61.9695124
  89.4849815  32.7968207  62.0260315  89.3081455  34.2738696  62.3069904
  88.8820408  24.5669283  63.1995792  88.1443164  24.0546670  63.5306034
  89.1347181  24.1269665  62.3879068  88.3820427  35.4753794  62.9044942
  88.6743402  36.0358851  62.1857308  88.8919048  35.7682355  63.6598101
  88.9832035  17.3445535  63.7937561  89.2890912  16.4842899  63.5063476
  89.7084640  17.9363156  63.5936555  75.2756391  27.7476222  62.1819159
  75.0780791  27.1545583  61.4570225  74.7203055  27.4428432  62.8995098
  83.2553115  27.6399328  64.3013752  83.3101724  26.6873165  64.2256229
  82.4444317  27.7958768  64.7855050  84.4044308  31.5679452  55.5392035
  83.9663738  30.8515310  55.0797673  85.1454749  31.7955566  54.9777127
  81.1945475  26.2576388  62.0604131  80.3813340  26.5570559  62.4669323
  81.6904469  25.8632077  62.7778613  83.3454053  36.2534145  63.9938396
  83.3030231  36.4794991  63.0646928  84.2616751  36.0197520  64.1424197
  86.7919686  26.7218213  70.8919025  87.1469074  26.9489686  71.7513490
  87.4391818  27.0536589  70.2696280  92.5217423  29.8436649  61.5968354
  92.3835322  30.0338245  60.6689543  92.1653642  30.6056031  62.0536405
  80.6859549  23.8294744  67.6765366  81.3258929  23.6883503  66.9788329
  79.8537080  23.5429257  67.3003968  92.5486803  31.9113176  66.6079625
  92.9823310  31.8188465  67.4562679  93.2618384  31.8870676  65.9699641
  81.4619853  33.1297174  63.7900358  82.2560452  32.6347494  63.5882933
  80.7511546  32.6015037  63.4268064  86.2814698  35.5115270  68.1412726
  86.3351720  36.0806206  68.9090442  85.4129479  35.6817155  67.7766763
  77.7702617  27.2740256  59.8660111  76.8400205  27.2124711  60.0830073
  77.8660089  26.7516209  59.0696752  77.6888166  23.7995069  62.4538353
  77.9494983  24.7140402  62.3447513  78.5105338  23.3319511  62.6034965
  79.1613091  25.2132826  69.6237177  79.8336145  25.0050188  68.9749826
  78.3342878  25.0154912  69.1842409  93.4102352  31.9536876  69.1412511
  93.6038243  32.8582687  69.3871786  93.3102971  31.4944295  69.9751096
  85.0638663  21.8394767  71.6402838  84.4166578  22.5384716  71.5467314
  85.8339679  22.2730911  72.0079086  88.4717461  32.1043619  74.7153391
  88.3202968  31.8754171  73.7983475  88.4622141  33.0614220  74.7284736
  85.2402798  29.6775532  69.6999658  86.1694858  29.8286691  69.5268625
  84.8193828  29.7659553  68.8448304  84.0391129  33.7026196  67.4698195
  83.9002215  33.3344981  68.3424133  83.2505726  34.2173836  67.2982153
  84.6339281  38.8035293  58.8123732  84.8091037  38.3323336  59.6269355
  83.9472069  39.4301059  59.0404993  85.5896344  33.0807799  64.8587033
  85.2546177  33.0408569  65.7544683  85.0900290  32.4152515  64.3857443
  79.5640588  28.4875429  70.3839614  79.4260386  27.7555668  70.9851153
  80.4745512  28.3984329  70.1023802  88.5255536  30.4263833  55.1324093
  87.9084707  29.7010661  55.0357145  88.0572025  31.1873193  54.7891167
  82.1922889  28.1995388  69.8723294  82.9022508  27.5588580  69.8309912
  82.1492197  28.4508283  70.7949475  90.1809668  35.1362742  72.7929873
  90.1222214  34.4521962  72.1260456  90.5829186  35.8781732  72.3410499
  80.9051823  25.1860606  71.6918933  80.3689180  24.7351345  72.3440530
  80.3168532  25.3206515  70.9489398  79.2000367  41.9524655  65.5863592
  79.4396965  42.5843180  66.2642611  78.3569563  41.6012695  65.8728951
  80.3154082  24.6449257  54.2545397  79.4383548  24.5238058  53.8907644
  80.7911835  23.8535336  54.0024286  90.1827075  33.1002325  71.0243853
  89.2953854  32.7628247  71.1470252  90.7525626  32.3685357  71.2612618
  71.8356222  29.4326417  64.3486904  72.5227262  29.1188147  63.7607920
  71.6804351  30.3367782  64.0754156  76.6390944  24.3216614  68.7771928
  76.5549133  23.7142283  68.0422338  75.8173651  24.8125632  68.7781424
  83.7128228  37.7603778  67.9905096  83.6398400  38.5658749  68.5024401
  83.2705622  37.9595744  67.1653117  83.5018008  36.9975548  61.5007918
  82.7185530  37.5397228  61.5946142  84.2010753  37.5149527  61.9002159
  86.8114658  22.8070177  64.1442123  87.3083358  22.0540140  63.8243193
  86.0401640  22.8434494  63.5785332  94.6644416  28.5110543  65.7860414
  94.6534292  29.3935258  65.4154348  93.7961795  28.1582094  65.5914952
  86.1726912  37.6590612  70.1463255  86.8854884  38.2938077  70.0739156
  85.6816941  37.7554478  69.3303257  87.8944439  31.5641865  61.7180546
  86.9600718  31.6843327  61.5485251  88.0721107  30.6614331  61.4540556
  83.3949627  24.9487560  63.8713808  83.0247414  24.3958601  64.5594713
  83.8908719  24.3445694  63.3188808  91.2816990  27.4059184  62.2530580
  91.7477442  28.2387175  62.1790883  91.7324491  26.9404165  62.9575839
  81.2238825  35.4085055  70.9668825  81.9248285  36.0421538  71.1198220
  80.7533940  35.7499787  70.2064465  89.3493221  33.7503005  59.2516733
  89.6253065  33.6359600  60.1610607  88.4797720  33.3520490  59.2128906
  89.2533653  19.7739771  66.2921482  88.3396733  20.0043998  66.4603689
  89.6826754  19.8578215  67.1435514  89.0240111  27.9629663  68.7921376
  88.3711562  28.2105570  68.1373829  89.4020491  27.1493801  68.4583853
  85.9847285  37.9989356  62.8949546  86.1669680  37.1811012  63.3577298
  86.8080271  38.2157048  62.4574436  86.3189451  36.9257541  60.1564595
  86.8477217  36.4149996  59.5434757  86.5817670  36.6100071  61.0210128
  85.0727684  28.7049474  75.2787413  84.3968321  28.6043603  75.9489788
  85.8955318  28.5488688  75.7423410  76.8206544  34.9421410  67.8999928
  77.4059980  34.1965098  68.0327832  76.6231382  35.2525367  68.7836592
  79.6745199  37.9772658  62.9162371  79.0055574  38.4618785  62.4326411
  79.5358068  38.2241878  63.8305749  71.4124198  27.5127011  66.6204371
  71.4508298  26.9790601  67.4141489  70.9064491  26.9862216  66.0015349
  83.8150467  40.0116401  69.5145029  84.3668775  40.1748023  70.2794114
  84.1556661  40.6020839  68.8425054  78.7914961  22.3591551  70.1166914
  78.8556287  23.2206382  69.7044311  78.7282081  21.7465553  69.3839272
  78.2667233  24.4314684  73.7639948  78.8939272  24.0491761  74.3777472
  77.4095152  24.2128886  74.1295640  88.6661342  34.8377659  75.3693683
  89.2101246  35.4507617  74.8748638  88.0848187  35.3957237  75.8860696
  75.0432776  26.2391113  59.6958303  75.3386217  25.3301791  59.6425356
  74.1420812  26.2178852  59.3739305  86.9518855  37.9598377  66.5008711
  86.8269994  37.1588117  65.9919657  87.6097946  38.4544570  66.0122681
  78.5727023  24.3147109  65.6785851  77.8513609  24.9283077  65.5393325
  79.3620279  24.8504874  65.6002497  89.0153763  35.7607397  68.1288261
  88.0684099  35.6412748  68.0566588  89.3636536  34.8729895  68.2114523
  81.3753336  21.6501536  71.9526503  81.8987738  21.8963832  72.7152812
  81.1565670  22.4821571  71.5329640  76.7720617  23.9205210  59.8197628
  76.4433324  23.0402589  59.6372734  77.1259988  23.8652879  60.7074017
  86.0200196  35.5560113  64.3292613  85.8725159  34.6276821  64.5100183
  86.8453690  35.5780204  63.8449689  79.8862441  24.2078180  60.1873106
  80.2258513  24.7364101  59.4651714  80.3334561  24.5458586  60.9631672
  89.6234318  36.3788672  65.4157486  90.5480866  36.1731533  65.2781937
  89.4549622  36.1305073  66.3246828  82.5805881  22.5915231  69.6376174
  82.2402702  21.7923044  70.0396853  81.8744888  22.8916942  69.0653007
  83.2322353  19.6764543  68.0903497  84.0548423  19.2025022  67.9682387
  83.4760417  20.4555027  68.5902183  81.8730588  22.7052802  58.3866398
  82.5938950  23.0834055  57.8830115  81.2495892  23.4241679  58.4901376
  86.0161711  23.4097951  59.3224731  86.2325325  24.2922589  59.0213559
  85.5355778  23.0184164  58.5930373  80.7560932  26.3683664  65.8995475
  80.6105513  26.6823967  66.7919757  80.2786136  26.9868564  65.3466374
  82.6157315  23.3586212  65.9476365  82.6018884  22.4627305  65.6108663
  83.3329743  23.3656876  66.5814651  84.4683446  23.7923552  67.9929492
  84.2101223  24.7140623  67.9913823  83.9368486  23.3953987  68.6829956
  89.4129634  36.8974339  60.7719578  89.5866512  36.3320762  60.0193430
  89.9058526  37.6975234  60.5899068  75.2306594  28.9089008  68.8383136
  74.6860062  29.6848816  68.9703411  76.1085944  29.2559813  68.6802258
  82.0194211  22.2400592  61.2163935  82.1410122  21.3117238  61.4154822
  81.7296253  22.2539278  60.3042250  84.8885401  19.9255503  64.3530655
  84.9107098  19.9894836  63.3982634  85.3053460  19.0860011  64.5471161
  95.2669026  29.6610762  62.3909877  95.7100172  28.9118087  61.9929001
  94.3895536  29.6520899  62.0083609  90.4004807  36.2141104  57.8716476
  91.0955711  36.8347796  58.0903791  90.7427957  35.3636455  58.1468854
  76.0172616  28.0358905  71.7313293  75.2754352  28.1841540  72.3177924
  75.6965360  28.2967170  70.8680043  92.2996230  33.6640809  59.4003807
  92.8247554  34.0028082  58.6753127  92.2118583  32.7287825  59.2166941
  83.9616279  37.5774883  71.5293683  84.2703405  37.3324030  72.4016383
  84.7591761  37.7821521  71.0412554  83.9836891  39.7312793  63.7599060
  83.5441881  39.2389171  64.4531917  84.7345008  39.1885760  63.5191135
  76.4629230  35.9224333  63.7623688  77.2887250  35.6228105  63.3822331
  76.1123282  35.1531956  64.2113477  81.4310763  35.2750802  65.8321362
  80.8090772  34.6121507  65.5323589  82.1015630  35.3011933  65.1495009
  74.6637835  33.8410660  64.7212622  73.8269743  33.4132834  64.5396623
  74.6361480  34.0343103  65.6583413  81.5035290  23.7532590  75.4253868
  81.5523446  24.6294712  75.0431637  82.0457805  23.2109983  74.8525511
  91.9890136  34.2973713  74.7055005  91.1985680  34.2797852  74.1659504
  91.7523491  34.8362007  75.4604041  92.1088011  31.1466179  72.0187733
  92.1586016  30.9816187  72.9603256  92.0001934  30.2793438  71.6285614
  80.9924270  33.8254725  59.3079822  81.1412390  34.5090189  58.6546495
  81.7990713  33.8059815  59.8229278  89.3991773  27.1297107  73.3347040
  90.3001636  26.9903572  73.0431038  89.4739748  27.2951562  74.2745217
  83.7334579  24.5063962  72.1800226  82.8637888  24.7997528  71.9082815
  83.9694059  25.0904407  72.9007490  93.6106208  33.5663121  72.2629755
  93.3191016  33.9293101  73.0993216  92.9978339  32.8530129  72.0843087
  94.8101890  31.1316001  64.7832325  95.6448782  31.5705805  64.9469885
  94.9461019  30.6554654  63.9640571  91.8593396  28.6895735  70.7309813
  92.3347518  28.8823382  69.9228664  90.9358962  28.7454921  70.4853196
  78.7476903  29.8519903  60.3140891  78.5022945  28.9482233  60.5121101
  78.9172817  29.8537053  59.3720369  86.4373613  20.7243579  69.6965647
  86.9555557  21.4604606  69.3712135  86.0828745  21.0307572  70.5312406
  78.0172550  25.5848260  57.8127052  77.3241795  25.6592615  57.1567088
  77.7724302  24.8208604  58.3348569  86.6886207  17.1443861  65.2166543
  86.9687961  16.4767051  65.8426970  87.4736814  17.3372957  64.7041207
  84.4919675  36.3202855  56.7791569  83.9193642  36.9393043  56.3262041
  85.0652469  36.8702217  57.3131491  90.5595065  25.5661495  68.9638118
  91.5112488  25.6659593  68.9850342  90.3898516  24.7739764  69.4736203
  88.5809445  22.6517079  69.1497519  87.9859377  22.9322091  68.4544008
  88.2959141  23.1410980  69.9214260  87.7116935  36.6040006  57.9100152
  88.6447608  36.5385567  58.1133027  87.6240148  37.4396272  57.4514684
  90.3404952  35.9205876  54.8704099  90.2618583  35.5865739  55.7639857
  91.1614619  36.4127644  54.8695572  93.0383143  28.7867615  68.0780418
  93.0059463  27.8483616  68.2640102  93.6483767  28.8651652  67.3446243
  84.8766474  27.6563668  54.1207622  85.8225579  27.5269876  54.1896040
  84.4980719  26.9178330  54.5977050  93.1877631  25.5778659  68.1238701
  92.6716680  24.7937115  67.9368630  94.0717580  25.2497375  68.2885221
  90.8488358  19.3219674  64.0834514  90.6513179  19.0134762  64.9677846
  91.4588064  20.0481313  64.2132444  98.8559693  29.8483622  67.2186455
  99.5863081  29.5868910  67.7794158  98.2466638  29.1112344  67.2588523
  96.9374990  27.9891485  67.8160906  96.2108153  27.8547450  67.2077398
  96.5222277  28.2968313  68.6217624  84.7605166  31.7081414  75.5808279
  85.6808176  31.8860013  75.7748325  84.7254749  30.7637460  75.4287978
  83.0609391  25.5813645  54.0562507  82.1540846  25.2846757  54.1325221
  83.3385372  25.2843463  53.1896793  73.9787331  26.9020008  64.5061554
  73.6590116  26.0485316  64.2135928  73.4320760  27.1168586  65.2619521
  77.7567239  29.6182449  68.2231060  77.9753249  30.5499557  68.2419094
  78.1693013  29.2590423  69.0085864  84.6771457  20.1250534  60.2106748
  83.8672185  19.7797619  60.5861995  85.3655874  19.8158078  60.7994360
  86.6062005  19.2028581  61.8331045  87.1593044  19.6224034  62.4921068
  86.8432091  18.2764329  61.8754001  82.6295104  25.1915655  77.6133809
  82.5291831  26.1410012  77.5445900  82.4116646  24.8633894  76.7409879
  81.8308176  22.4400580  54.1974486  82.6927340  22.7655478  54.4570304
  82.0158520  21.6532076  53.6847552  73.8475591  30.5222919  66.4754675
  73.1539063  30.1076872  65.9624630  74.5948582  30.5643456  65.8788094
  89.9840812  21.3129106  61.3409709  89.4039481  21.9713910  60.9587762
  89.7176745  20.4906451  60.9297127  88.4344378  20.7134164  63.5431030
  88.9344157  20.8250698  62.7345349  89.0779986  20.4095217  64.1831838
  82.4926374  28.6212794  76.4298871  82.0093456  29.4213154  76.6362760
  82.5787313  28.6320738  75.4766315  75.7612334  30.4541173  64.3520690
  75.7383022  30.5528860  63.4002573  76.0712970  31.3006324  64.6737856
  78.4199712  32.5117328  68.4667304  79.3742965  32.4801271  68.3997236
  78.2212235  32.0507952  69.2817530  79.0099094  31.0818444  71.0338102
  79.8291983  31.5762523  71.0572939  79.2835902  30.1650412  71.0055670
  88.7665690  23.4729197  60.3966058  87.8791545  23.7578847  60.1786252
  89.1819679  23.3122960  59.5493335  92.1180226  23.4975718  64.1120397
  92.8940616  23.9872170  64.3845014  91.3928360  23.9233772  64.5692266
  94.5552785  24.2103337  65.1694338  95.1497276  23.9699073  64.4587646
  94.6279369  23.4910467  65.7967874  76.7749941  38.0536948  65.4837502
  76.6404408  37.2937349  64.9175500  76.3582003  38.7777848  65.0166291
  87.9108904  33.2373871  54.4914078  88.6144754  33.4423874  55.1071733
  87.1871552  33.8050633  54.7563161  88.7406714  28.9883733  60.6116348
  88.6841915  29.4452284  59.7723980  89.2935056  28.2274417  60.4339191
  92.5511520  24.7773464  61.4366467  92.2948454  24.3770100  62.2674675
  91.9264388  25.4917258  61.3116606  96.8623858  27.5169538  63.9437759
  96.3023416  27.5862727  64.7169321  96.2567361  27.3410522  63.2237255
  79.9319066  38.9506265  65.6955945  79.8151451  39.8951697  65.5934635
  79.1111513  38.6479826  66.0841744  89.8195601  33.6756400  56.5412538
  90.6541205  33.2437599  56.3590012  89.6579944  33.5038414  57.4689432
  89.4741493  30.1788514  57.9068877  89.4190297  30.0132785  56.9657321
  88.8487548  30.8864547  58.0631067  74.2634008  25.4156578  71.7330299
  74.9092872  24.9055532  72.2217524  74.0551159  26.1525260  72.3073724
  86.7887400  32.4837426  77.2322440  87.6578560  32.6578078  76.8709075
  86.3094152  33.3031842  77.1098169  82.7837619  19.6796623  57.4854195
  82.7716288  20.6238463  57.6422466  83.6761040  19.4966768  57.1913657
  80.9573581  39.6034527  68.9111873  81.8600827  39.6358137  69.2278368
  80.7310951  38.6734978  68.9258209  82.7127183  38.3565513  65.5721952
  81.7622814  38.3567375  65.4586324  83.0159669  37.6098248  65.0557987
  86.5989738  16.2739399  61.7400132  85.8322134  15.7197886  61.8856815
  87.0100443  16.3461268  62.6014284  78.6031499  22.5624195  75.8305313
  79.4662961  22.2061000  76.0408638  78.0296910  22.2238090  76.5180718
  98.4479876  44.1926052  66.6367714  99.0858286  44.0732799  65.9331055
  98.3300719  45.1406896  66.6955667  95.2569582  44.1453480  66.5729239
  94.9188094  44.0294544  65.6849774  96.1259351  43.7444645  66.5530245
  91.1156398  45.9988956  62.5626130  90.5521263  45.9078893  61.7942418
  91.0008793  45.1788861  63.0428623  95.7389365  45.2988331  72.5315445
  95.7278006  44.9041130  71.6595948  95.9010005  44.5654404  73.1249216
  88.6620830  47.4940148  65.4010351  89.4542122  47.1530972  64.9856650
  88.9017480  47.6035123  66.3212504  96.6955957  49.6659924  57.8740595
  96.0443936  50.2514004  57.4874609  97.4900320  50.1966119  57.9335632
  90.6211584  46.7549061  58.2727729  91.3942460  46.2078048  58.1340605
  90.9736983  47.6193310  58.4842191  92.4596626  48.0825443  71.4794629
  92.1686492  48.9871074  71.3641295  93.0953611  48.1241971  72.1938698
  93.3852833  45.4602292  68.0695988  93.9816406  45.2358314  67.3552951
  93.4427805  44.7187037  68.6721436  92.9577862  42.9141727  55.9046179
  93.2103382  42.3923248  55.1429642  92.0202421  42.7507872  56.0072863
  98.0021145  41.9177505  63.7120922  98.7884234  41.4996929  63.3611339
  98.2659849  42.8223598  63.8802571  98.1731222  47.3550356  58.4109579
  97.5377055  47.4284982  59.1230484  97.8428628  47.9443955  57.7328659
  92.6774150  44.8169833  58.1070554  92.5610409  44.1414736  58.7751639
  92.7876410  44.3302207  57.2902707  95.0205691  44.2779980  61.8117243
  94.6563899  43.7510601  62.5230165  95.8772807  43.8878449  61.6383729
 100.9254992  35.5674313  69.0748510 100.5938317  36.4369724  68.8509725
 100.3300605  35.2510597  69.7542540  94.6611178  39.3069880  56.8078592
  94.8285581  40.1750116  57.1749063  94.4708347  39.4697162  55.8839881
  97.4186512  47.7686859  68.4744422  97.1187235  48.6711898  68.3660230
  97.0737571  47.5019042  69.3265575  90.8698993  44.2200656  64.5081127
  89.9449489  44.0876870  64.7158819  91.1183406  44.9994875  65.0051069
 100.8183655  40.2869399  66.1541860  99.9100533  40.2184807  65.8600621
 100.7671251  40.7641344  66.9823685  94.6400399  41.7627537  57.7925259
  94.5200024  42.2084588  58.6310739  93.9452988  42.1112855  57.2338797
  88.2307804  43.8633929  65.3424916  88.3600185  44.1168408  66.2564328
  87.5505255  44.4561637  65.0229571  92.4007291  54.5331179  61.4415390
  92.3231321  55.4839004  61.5203871  91.7968935  54.1877052  62.0990316
  94.8924521  41.7059044  74.0976757  94.1157855  42.2652965  74.0879622
  95.5315084  42.1915827  74.6191627 102.6845302  38.4885837  67.9319734
 102.0419682  38.7818370  67.2859528 102.1800230  38.3738758  68.7372930
 100.3385465  42.2349010  58.6205593 101.2503321  42.4676397  58.4453290
  99.8295112  42.8186055  58.0580671  93.1470893  44.5144498  73.6594724
  93.8885578  45.0529542  73.3829548  92.4407879  45.1410787  73.8166276
  98.6226233  46.6573638  72.2566885  99.0309589  46.2156049  71.5121518
  97.9003495  46.0826266  72.5101078  94.9757303  41.5946245  69.6300442
  95.8218498  42.0185659  69.7735091  94.9155941  40.9379869  70.3239005
  98.9455048  47.2174829  66.0119174  98.3163910  47.3820543  65.3095242
  98.5580710  47.6316438  66.7830138 102.8244280  48.1529267  63.3663538
 102.1395318  48.5328168  62.8160571 102.9088129  48.7624593  64.0995486
  98.1256748  39.2550613  71.2881616  97.8817680  40.0092674  70.7515892
  98.4016679  39.6335961  72.1228863 100.0795211  45.7989226  69.9658882
 100.2912106  46.4420986  69.2893263 100.0324959  44.9651542  69.4980812
  97.6821440  38.4107046  66.8695454  96.8205919  38.7088300  67.1612191
  97.7083875  38.6277445  65.9376486  94.4983010  46.9549237  63.2769259
  94.9621355  47.2336940  62.4873882  94.2339808  46.0532682  63.0942350
  91.3907091  46.5020719  66.2149023  91.9608448  46.9307987  65.5766507
  91.9815202  46.2203303  66.9133208  93.4351896  43.0772389  60.0858825
  94.1375939  43.5293433  60.5532751  93.1032524  42.4356208  60.7138718
  91.8832257  41.6684146  74.4610034  91.2530918  42.3500427  74.6945431
  91.7768345  41.5567228  73.5163172  87.1777230  41.3355942  65.3875958
  86.3876284  41.5913471  64.9116069  87.6688477  42.1504280  65.4927999
 101.1941039  48.6761181  68.1381239 102.0158483  48.2741369  67.8563921
 101.1903442  48.5729415  69.0897355  89.1291975  41.7000521  62.3459435
  88.3323138  41.8119216  62.8642930  88.9017567  42.0387174  61.4800325
  94.9597643  48.2245225  70.2941949  95.0242075  48.6865632  71.1300121
  94.2508566  47.5942589  70.4224259  85.4614933  41.5886433  67.8190949
  85.7122971  42.4733442  68.0848525  85.9974481  41.4091034  67.0466041
  94.6745660  49.8913332  60.1620930  94.5391335  50.7364868  60.5905778
  95.2155473  50.0932610  59.3986864  91.1613000  35.9704912  76.8235285
  90.7679945  35.4171110  77.4982929  91.9779140  36.2815490  77.2141802
  88.1275058  47.4088770  60.7348855  88.6399578  48.2032020  60.8854420
  88.7797770  46.7115061  60.6682456  89.9369942  50.5254526  62.8171608
  90.1136571  51.4472491  62.6292592  90.7326776  50.2112946  63.2465988
  94.0780961  37.3862791  74.4155542  94.8190674  37.9869944  74.3360004
  94.3098884  36.6440429  73.8573584  89.2222299  42.5719158  72.6933771
  89.1075814  41.6704415  72.9940870  88.3666817  42.8182855  72.3418588
  96.3014137  50.5136899  74.2921272  95.8577991  49.7273277  73.9742176
  96.9631350  50.7016049  73.6265163  91.0601258  52.0432700  68.8181950
  91.6108683  51.9149763  68.0458944  90.2212734  52.3427589  68.4676843
  98.3995375  50.7939698  72.3202673  98.3813850  51.6148580  71.8282942
  99.3215295  50.6693774  72.5452814  94.8568429  48.3083828  73.1626181
  95.3896766  47.5472116  72.9325489  94.3282510  48.0157480  73.9050336
  98.0238124  33.4143894  68.6919823  97.6802393  34.3045536  68.6158934
  98.3917086  33.2245552  67.8289408  86.0923974  45.7377424  61.5108425
  86.9299196  46.1474433  61.2942133  86.2702242  44.7976867  61.4808619
  97.9888407  43.4052505  57.1992258  97.4735030  44.1757110  57.4380646
  97.7165715  42.7317641  57.8225320  95.5735518  38.2502206  62.2577497
  94.7177114  37.8609056  62.0783135  95.9862469  38.3294167  61.3977282
  97.1034664  35.7848549  66.6569056  96.5999460  35.7478684  65.8436862
  97.3965271  36.6941292  66.7165713  93.3477550  35.8687279  65.6635238
  94.2130547  35.6730087  65.3041128  93.4155059  35.6397631  66.5904595
 102.9622681  46.1584860  59.1345432 102.1852123  45.8196019  58.6900594
 103.6414162  46.1637483  58.4600397  97.7774710  41.2779597  59.0252039
  97.4724845  41.5925746  59.8762183  98.7305152  41.3561017  59.0679372
  96.2221142  47.4369820  60.6744993  95.6942503  46.7022580  60.3618231
  95.7208644  48.2144497  60.4284962 101.2013988  45.6318841  65.7912040
 100.5437662  46.3218102  65.8792168 102.0054387  46.0215273  66.1346026
  90.9539869  38.0989487  63.0351605  91.5283621  37.8764668  62.3024798
  91.5410852  38.1678181  63.7880206 100.0119446  43.9863214  63.8415982
 100.5251328  44.6193205  64.3437691 100.6620670  43.3864409  63.4759342
  91.2809456  40.1293948  57.0547490  90.4446769  40.4668634  57.3756765
  91.1414226  39.9942928  56.1174627  93.2562537  34.9730736  61.7626674
  92.6026949  34.6579753  61.1383289  93.2143011  34.3506476  62.4886497
  94.3673742  45.2550031  53.6779967  93.4600803  45.0239284  53.8771115
  94.8644774  44.4587650  53.8653948  97.2741821  53.9647538  56.5976653
  96.6003519  54.2679235  57.2061611  97.6607643  54.7676618  56.2482110
  96.4900277  41.4612669  66.0874322  95.5722839  41.6827616  65.9296010
  96.9060421  41.5358980  65.2286029  97.2735325  42.8604085  61.2177002
  98.0207144  43.3725482  60.9084124  97.5426915  42.5388138  62.0781396
  95.5461975  45.3562626  58.2003957  94.6373194  45.0721658  58.2976426
  95.5757059  45.7761704  57.3407263 100.7781243  48.9669215  61.9695124
 100.3243570  48.1260125  62.0260315 100.1475209  49.6030613  62.3069904
  99.7214162  39.8961201  63.1995792  98.9836919  39.3838587  63.5306034
  99.9740936  39.4561583  62.3879068  99.2214182  50.8045712  62.9044942
  99.5137156  51.3650769  62.1857308  99.7312802  51.0974273  63.6598101
  99.8225789  32.6737453  63.7937561 100.1284666  31.8134817  63.5063476
 100.5478394  33.2655073  63.5936555  86.1150146  43.0768140  62.1819159
  85.9174545  42.4837500  61.4570225  85.5596810  42.7720350  62.8995098
  94.0946869  42.9691246  64.3013752  94.1495479  42.0165083  64.2256229
  93.2838071  43.1250685  64.7855050  95.2438063  46.8971369  55.5392035
  94.8057493  46.1807228  55.0797673  95.9848504  47.1247484  54.9777127
  92.0339229  41.5868306  62.0604131  91.2207095  41.8862476  62.4669323
  92.5298223  41.1923995  62.7778613  94.1847807  51.5826063  63.9938396
  94.1423986  51.8086909  63.0646928  95.1010506  51.3489437  64.1424197
  97.6313441  42.0510130  70.8919025  97.9862829  42.2781604  71.7513490
  98.2785572  42.3828507  70.2696280 103.3611178  45.1728566  61.5968354
 103.2229076  45.3630162  60.6689543 103.0047397  45.9347949  62.0536405
  91.5253304  39.1586661  67.6765366  92.1652683  39.0175421  66.9788329
  90.6930834  38.8721175  67.3003968  92.3013608  48.4589092  63.7900358
  93.0954206  47.9639412  63.5882933  91.5905300  47.9306955  63.4268064
  97.1208452  50.8407187  68.1412726  97.1745475  51.4098124  68.9090442
  96.2523234  51.0109072  67.7766763  88.6096371  42.6032174  59.8660111
  87.6793959  42.5416629  60.0830073  88.7053843  42.0808126  59.0696752
  88.5281920  39.1286986  62.4538353  88.7888738  40.0432320  62.3447513
  89.3499093  38.6611429  62.6034965  90.0006846  40.5424744  69.6237177
  90.6729899  40.3342106  68.9749826  89.1736632  40.3446830  69.1842409
  95.9032418  37.1686684  71.6402838  95.2560333  37.8676634  71.5467314
  96.6733433  37.6022828  72.0079086  99.3111216  47.4335537  74.7153391
  99.1596722  47.2046088  73.7983475  99.3015895  48.3906138  74.7284736
  96.0796552  45.0067449  69.6999658  97.0088612  45.1578609  69.5268625
  95.6587582  45.0951470  68.8448304  94.8784884  49.0318114  67.4698195
  94.7395969  48.6636898  68.3424133  94.0899480  49.5465753  67.2982153
  95.4733036  54.1327210  58.8123732  95.6484791  53.6615253  59.6269355
  94.7865824  54.7592976  59.0404993  96.4290099  48.4099717  64.8587033
  96.0939932  48.3700486  65.7544683  95.9294045  47.7444432  64.3857443
  90.4034343  43.8167347  70.3839614  90.2654141  43.0847585  70.9851153
  91.3139266  43.7276247  70.1023802  99.3649291  45.7555751  55.1324093
  98.7478461  45.0302579  55.0357145  98.8965779  46.5165111  54.7891167
  93.0316644  43.5287306  69.8723294  93.7416262  42.8880498  69.8309912
  92.9885952  43.7800201  70.7949475 101.0203422  50.4654659  72.7929873
 100.9615968  49.7813879  72.1260456 101.4222941  51.2073649  72.3410499
  91.7445578  40.5152524  71.6918933  91.2082935  40.0643262  72.3440530
  91.1562286  40.6498433  70.9489398  90.0394121  57.2816573  65.5863592
  90.2790719  57.9135097  66.2642611  89.1963318  56.9304613  65.8728951
  91.1547836  39.9741175  54.2545397  90.2777303  39.8529976  53.8907644
  91.6305590  39.1827253  54.0024286 101.0220830  48.4294243  71.0243853
 100.1347608  48.0920165  71.1470252 101.5919381  47.6977274  71.2612618
  82.6749977  44.7618335  64.3486904  83.3621016  44.4480065  63.7607920
  82.5198105  45.6659700  64.0754156  87.4784699  39.6508531  68.7771928
  87.3942888  39.0434201  68.0422338  86.6567405  40.1417550  68.7781424
  94.5521983  53.0895695  67.9905096  94.4792154  53.8950667  68.5024401
  94.1099376  53.2887661  67.1653117  94.3411763  52.3267466  61.5007918
  93.5579284  52.8689146  61.5946142  95.0404508  52.8441445  61.9002159
  97.6508413  38.1362095  64.1442123  98.1477112  37.3832057  63.8243193
  96.8795394  38.1726412  63.5785332  97.0120666  52.9882530  70.1463255
  97.7248639  53.6229994  70.0739156  96.5210695  53.0846396  69.3303257
  98.7338193  46.8933782  61.7180546  97.7994472  47.0135245  61.5485251
  98.9114862  45.9906249  61.4540556  94.2343381  40.2779478  63.8713808
  93.8641169  39.7250518  64.5594713  94.7302474  39.6737611  63.3188808
 102.1210745  42.7351101  62.2530580 102.5871197  43.5679093  62.1790883
 102.5718245  42.2696083  62.9575839  92.0632580  50.7376973  70.9668825
  92.7642039  51.3713456  71.1198220  91.5927695  51.0791705  70.2064465
 100.1886976  49.0794923  59.2516733 100.4646820  48.9651517  60.1610607
  99.3191475  48.6812408  59.2128906 100.0927407  35.1031688  66.2921482
  99.1790487  35.3335915  66.4603689 100.5220509  35.1870133  67.1435514
  99.8633866  43.2921580  68.7921376  99.2105316  43.5397488  68.1373829
 100.2414246  42.4785719  68.4583853  96.8241040  53.3281274  62.8949546
  97.0063434  52.5102930  63.3577298  97.6474026  53.5448966  62.4574436
  97.1583205  52.2549459  60.1564595  97.6870972  51.7441913  59.5434757
  97.4211425  51.9391989  61.0210128  95.9121439  44.0341392  75.2787413
  95.2362076  43.9335521  75.9489788  96.7349073  43.8780605  75.7423410
  87.6600298  50.2713328  67.8999928  88.2453735  49.5257016  68.0327832
  87.4625136  50.5817285  68.7836592  90.5138953  53.3064575  62.9162371
  89.8449329  53.7910703  62.4326411  90.3751823  53.5533796  63.8305749
  82.2517953  42.8418928  66.6204371  82.2902052  42.3082519  67.4141489
  81.7458246  42.3154134  66.0015349  94.6544222  55.3408319  69.5145029
  95.2062530  55.5039940  70.2794114  94.9950415  55.9312757  68.8425054
  89.6308715  37.6883469  70.1166914  89.6950042  38.5498300  69.7044311
  89.5675835  37.0757470  69.3839272  89.1060988  39.7606601  73.7639948
  89.7333026  39.3783679  74.3777472  88.2488906  39.5420803  74.1295640
  99.5055096  50.1669576  75.3693683 100.0495000  50.7799535  74.8748638
  98.9241941  50.7249155  75.8860696  85.8826530  41.5683030  59.6958303
  86.1779971  40.6593709  59.6425356  84.9814566  41.5470770  59.3739305
  97.7912609  53.2890294  66.5008711  97.6663749  52.4880034  65.9919657
  98.4491700  53.7836488  66.0122681  89.4120777  39.6439027  65.6785851
  88.6907363  40.2574995  65.5393325  90.2014033  40.1796792  65.6002497
  99.8547517  51.0899315  68.1288261  98.9077853  50.9704666  68.0566588
 100.2030291  50.2021813  68.2114523  92.2147091  36.9793453  71.9526503
  92.7381493  37.2255750  72.7152812  91.9959424  37.8113488  71.5329640
  87.6114372  39.2497128  59.8197628  87.2827078  38.3694507  59.6372734
  87.9653743  39.1944797  60.7074017  96.8593951  50.8852031  64.3292613
  96.7118913  49.9568738  64.5100183  97.6847444  50.9072121  63.8449689
  90.7256195  39.5370098  60.1873106  91.0652268  40.0656019  59.4651714
  91.1728316  39.8750504  60.9631672 100.4628073  51.7080590  65.4157486
 101.3874620  51.5023451  65.2781937 100.2943376  51.4596991  66.3246828
  93.4199636  37.9207149  69.6376174  93.0796456  37.1214962  70.0396853
  92.7138642  38.2208859  69.0653007  94.0716108  35.0056461  68.0903497
  94.8942177  34.5316939  67.9682387  94.3154171  35.7846945  68.5902183
  92.7124342  38.0344719  58.3866398  93.4332705  38.4125972  57.8830115
  92.0889646  38.7533596  58.4901376  96.8555465  38.7389868  59.3224731
  97.0719079  39.6214506  59.0213559  96.3749532  38.3476082  58.5930373
  91.5954686  41.6975582  65.8995475  91.4499267  42.0115885  66.7919757
  91.1179890  42.3160482  65.3466374  93.4551069  38.6878130  65.9476365
  93.4412638  37.7919223  65.6108663  94.1723497  38.6948793  66.5814651
  95.3077200  39.1215470  67.9929492  95.0494978  40.0432540  67.9913823
  94.7762240  38.7245904  68.6829956 100.2523389  52.2266257  60.7719578
 100.4260266  51.6612679  60.0193430 100.7452280  53.0267152  60.5899068
  86.0700349  44.2380926  68.8383136  85.5253817  45.0140734  68.9703411
  86.9479699  44.5851731  68.6802258  92.8587965  37.5692510  61.2163935
  92.9803876  36.6409156  61.4154822  92.5690008  37.5831196  60.3042250
  95.7279156  35.2547420  64.3530655  95.7500853  35.3186753  63.3982634
  96.1447215  34.4151929  64.5471161 101.2398561  51.5433021  57.8716476
 101.9349466  52.1639714  58.0903791 101.5821711  50.6928373  58.1468854
  86.8566371  43.3650822  71.7313293  86.1148107  43.5133458  72.3177924
  86.5359115  43.6259088  70.8680043 103.1389984  48.9932727  59.4003807
 103.6641309  49.3320000  58.6753127 103.0512337  48.0579742  59.2166941
  94.8010033  52.9066801  71.5293683  95.1097160  52.6615947  72.4016383
  95.5985515  53.1113439  71.0412554  94.8230645  55.0604710  63.7599060
  94.3835635  54.5681089  64.4531917  95.5738762  54.5177678  63.5191135
  87.3022984  51.2516251  63.7623688  88.1281004  50.9520023  63.3822331
  86.9517036  50.4823873  64.2113477  92.2704517  50.6042719  65.8321362
  91.6484527  49.9413424  65.5323589  92.9409384  50.6303851  65.1495009
  85.5031589  49.1702577  64.7212622  84.6663498  48.7424752  64.5396623
  85.4755235  49.3635021  65.6583413  92.3429045  39.0824507  75.4253868
  92.3917200  39.9586630  75.0431637  92.8851559  38.5401900  74.8525511
 102.8283891  49.6265631  74.7055005 102.0379434  49.6089769  74.1659504
 102.5917245  50.1653924  75.4604041 102.9481766  46.4758097  72.0187733
 102.9979770  46.3108104  72.9603256 102.8395689  45.6085356  71.6285614
  91.8318024  49.1546643  59.3079822  91.9806145  49.8382107  58.6546495
  92.6384468  49.1351733  59.8229278 100.2385528  42.4589025  73.3347040
 101.1395391  42.3195490  73.0431038 100.3133502  42.6243480  74.2745217
  94.5728333  39.8355880  72.1800226  93.7031643  40.1289446  71.9082815
  94.8087814  40.4196325  72.9007490 102.6987151  44.0187653  70.7309813
 103.1741272  44.2115299  69.9228664 101.7752716  44.0746839  70.4853196
  89.5870657  45.1811820  60.3140891  89.3416699  44.2774150  60.5121101
  89.7566572  45.1828971  59.3720369  97.2767367  36.0535497  69.6965647
  97.7949311  36.7896524  69.3712135  96.9222500  36.3599490  70.5312406
  88.8566305  40.9140178  57.8127052  88.1635550  40.9884533  57.1567088
  88.6118057  40.1500521  58.3348569  97.5279961  32.4735779  65.2166543
  97.8081715  31.8058968  65.8426970  98.3130568  32.6664875  64.7041207
  95.3313430  51.6494773  56.7791569  94.7587397  52.2684960  56.3262041
  95.9046223  52.1994135  57.3131491 101.3988820  40.8953413  68.9638118
 102.3506243  40.9951511  68.9850342 101.2292270  40.1031682  69.4736203
  99.4203199  37.9808996  69.1497519  98.8253131  38.2614009  68.4544008
  99.1352896  38.4702897  69.9214260  98.5510690  51.9331923  57.9100152
  99.4841363  51.8677485  58.1133027  98.4633902  52.7688190  57.4514684
 101.1798706  51.2497794  54.8704099 101.1012338  50.9157657  55.7639857
 102.0008373  51.7419561  54.8695572  95.7160228  42.9855586  54.1207622
  96.6619333  42.8561794  54.1896040  95.3374473  42.2470248  54.5977050
 101.6882113  34.6511592  64.0834514 101.4906934  34.3426680  64.9677846
 102.2981818  35.3773231  64.2132444  95.5998921  47.0373332  75.5808279
  96.5201930  47.2151931  75.7748325  95.5648504  46.0929377  75.4287978
  93.9003145  40.9105562  54.0562507  92.9934601  40.6138675  54.1325221
  94.1779126  40.6135380  53.1896793  84.8181086  42.2311926  64.5061554
  84.4983870  41.3777234  64.2135928  84.2714514  42.4460504  65.2619521
  88.5960993  44.9474367  68.2231060  88.8147003  45.8791474  68.2419094
  89.0086767  44.5882341  69.0085864  95.5165211  35.4542452  60.2106748
  94.7065939  35.1089537  60.5861995  96.2049628  35.1449996  60.7994360
  97.4455759  34.5320499  61.8331045  97.9986798  34.9515952  62.4921068
  97.6825846  33.6056247  61.8754001  93.4688859  40.5207572  77.6133809
  93.3685586  41.4701929  77.5445900  93.2510401  40.1925811  76.7409879
  92.6701930  37.7692497  54.1974486  93.5321094  38.0947396  54.4570304
  92.8552274  36.9823993  53.6847552  84.6869346  45.8514837  66.4754675
  83.9932817  45.4368790  65.9624630  85.4342337  45.8935374  65.8788094
 100.8234567  36.6421024  61.3409709 100.2433236  37.3005828  60.9587762
 100.5570499  35.8198368  60.9297127  99.2738133  36.0426082  63.5431030
  99.7737911  36.1542616  62.7345349  99.9173741  35.7387134  64.1831838
  93.3320129  43.9504711  76.4298871  92.8487210  44.7505071  76.6362760
  93.4181068  43.9612656  75.4766315  86.6006088  45.7833091  64.3520690
  86.5776776  45.8820778  63.4002573  86.9106725  46.6298242  64.6737856
  89.2593466  47.8409246  68.4667304  90.2136720  47.8093188  68.3997236
  89.0605990  47.3799870  69.2817530  89.8492848  46.4110362  71.0338102
  90.6685737  46.9054441  71.0572939  90.1229656  45.4942330  71.0055670
  99.6059445  38.8021114  60.3966058  98.7185300  39.0870765  60.1786252
 100.0213434  38.6414878  59.5493335 102.9573981  38.8267635  64.1120397
 103.7334371  39.3164088  64.3845014 102.2322115  39.2525689  64.5692266
  87.6143695  53.3828865  65.4837502  87.4798163  52.6229266  64.9175500
  87.1975757  54.1069765  65.0166291  98.7502658  48.5665789  54.4914078
  99.4538508  48.7715791  55.1071733  98.0265307  49.1342551  54.7563161
  99.5800468  44.3175650  60.6116348  99.5235670  44.7744202  59.7723980
 100.1328811  43.5566335  60.4339191 103.3905274  40.1065382  61.4366467
 103.1342208  39.7062018  62.2674675 102.7658142  40.8209176  61.3116606
  90.7712821  54.2798182  65.6955945  90.6545205  55.2243615  65.5934635
  89.9505267  53.9771744  66.0841744 100.6589355  49.0048318  56.5412538
 101.4934959  48.5729517  56.3590012 100.4973698  48.8330332  57.4689432
 100.3135248  45.5080431  57.9068877 100.2584051  45.3424703  56.9657321
  99.6881303  46.2156464  58.0631067  85.1027763  40.7448496  71.7330299
  85.7486626  40.2347450  72.2217524  84.8944914  41.4817177  72.3073724
  97.6281155  47.8129343  77.2322440  98.4972314  47.9869996  76.8709075
  97.1487906  48.6323760  77.1098169  93.6231373  35.0088540  57.4854195
  93.6110043  35.9530380  57.6422466  94.5154795  34.8258686  57.1913657
  91.7967335  54.9326444  68.9111873  92.6994582  54.9650055  69.2278368
  91.5704705  54.0026895  68.9258209  93.5520937  53.6857431  65.5721952
  92.6016568  53.6859292  65.4586324  93.8553423  52.9390165  65.0557987
  97.4383493  31.6031317  61.7400132  96.6715888  31.0489804  61.8856815
  97.8494197  31.6753186  62.6014284  89.4425254  37.8916113  75.8305313
  90.3056715  37.5352918  76.0408638  88.8690664  37.5530008  76.5180718
 101.9550152  61.3280874  62.5626130 101.3915018  61.2370811  61.7942418
 101.8402548  60.5080778  63.0428623  99.5014584  62.8232065  65.4010351
 100.2935876  62.4822890  64.9856650  99.7411235  62.9327040  66.3212504
 101.4605338  62.0840979  58.2727729 102.2336214  61.5369966  58.1340605
 101.8130737  62.9485228  58.4842191 103.5167905  60.1461751  58.1070554
 103.4004163  59.4706654  58.7751639 103.6270165  59.6594125  57.2902707
 101.7092747  59.5492573  64.5081127 100.7843244  59.4168787  64.7158819
 101.9577161  60.3286792  65.0051069  99.0701559  59.1925847  65.3424916
  99.1993940  59.4460326  66.2564328  98.3899010  59.7853555  65.0229571
 103.2401046  69.8623097  61.4415390 103.1625076  70.8130922  61.5203871
 102.6362689  69.5168969  62.0990316 102.2300845  61.8312636  66.2149023
 102.8002202  62.2599905  65.5766507 102.8208957  61.5495221  66.9133208
 102.7226012  56.9976064  74.4610034 102.0924672  57.6792345  74.6945431
 102.6162100  56.8859145  73.5163172  98.0170984  56.6647860  65.3875958
  97.2270038  56.9205388  64.9116069  98.5082231  57.4796198  65.4927999
  99.9685729  57.0292439  62.3459435  99.1716893  57.1411133  62.8642930
  99.7411322  57.3679091  61.4800325  96.3008687  56.9178350  67.8190949
  96.5516725  57.8025360  68.0848525  96.8368235  56.7382952  67.0466041
 102.0006754  51.2996830  76.8235285 101.6073700  50.7463028  77.4982929
 102.8172895  51.6107408  77.2141802  98.9668812  62.7380688  60.7348855
  99.4793333  63.5323938  60.8854420  99.6191525  62.0406978  60.6682456
 100.7763697  65.8546444  62.8171608 100.9530325  66.7764409  62.6292592
 101.5720530  65.5404863  63.2465988 100.0616053  57.9011076  72.6933771
  99.9469569  56.9996333  72.9940870  99.2060571  58.1474773  72.3418588
 101.8995012  67.3724618  68.8181950 102.4502437  67.2441681  68.0458944
 101.0606488  67.6719507  68.4676843  96.9317729  61.0669342  61.5108425
  97.7692951  61.4766350  61.2942133  97.1095997  60.1268784  61.4808619
 101.7933624  53.4281404  63.0351605 102.3677376  53.2056586  62.3024798
 102.3804606  53.4970099  63.7880206 102.1203211  55.4585865  57.0547490
 101.2840523  55.7960552  57.3756765 101.9807980  55.3234845  56.1174627
  96.9543900  58.4060057  62.1819159  96.7568300  57.8129418  61.4570225
  96.3990564  58.1012268  62.8995098 102.8732984  56.9160224  62.0604131
 102.0600849  57.2154394  62.4669323 103.3691978  56.5215912  62.7778613
 102.3647058  54.4878579  67.6765366 103.0046438  54.3467338  66.9788329
 101.5324589  54.2013092  67.3003968  99.4490126  57.9324091  59.8660111
  98.5187714  57.8708547  60.0830073  99.5447598  57.4100044  59.0696752
  99.3675675  54.4578904  62.4538353  99.6282492  55.3724237  62.3447513
 100.1892847  53.9903347  62.6034965 100.8400600  55.8716661  69.6237177
 101.5123654  55.6634023  68.9749826 100.0130387  55.6738747  69.1842409
 101.2428097  59.1459264  70.3839614 101.1047895  58.4139503  70.9851153
 102.1533021  59.0568164  70.1023802 102.5839332  55.8444441  71.6918933
 102.0476689  55.3935180  72.3440530 101.9956040  55.9790350  70.9489398
 100.8787876  72.6108491  65.5863592 101.1184474  73.2427015  66.2642611
 100.0357072  72.2596531  65.8728951 101.9941591  55.3033093  54.2545397
 101.1171057  55.1821894  53.8907644 102.4699344  54.5119171  54.0024286
  93.5143731  60.0910253  64.3486904  94.2014771  59.7771983  63.7607920
  93.3591860  60.9951617  64.0754156  98.3178453  54.9800449  68.7771928
  98.2336642  54.3726119  68.0422338  97.4961160  55.4709467  68.7781424
 102.9026334  66.0668891  70.9668825 103.6035794  66.7005374  71.1198220
 102.4321449  66.4083622  70.2064465  98.4994053  65.6005246  67.8999928
  99.0847489  64.8548934  68.0327832  98.3018891  65.9109202  68.7836592
 101.3532708  68.6356493  62.9162371 100.6843083  69.1202621  62.4326411
 101.2145577  68.8825714  63.8305749  93.0911707  58.1710846  66.6204371
  93.1295807  57.6374437  67.4141489  92.5852000  57.6446051  66.0015349
 100.4702470  53.0175386  70.1166914 100.5343796  53.8790217  69.7044311
 100.4069590  52.4049388  69.3839272  99.9454742  55.0898519  73.7639948
 100.5726781  54.7075596  74.3777472  99.0882661  54.8712721  74.1295640
  96.7220285  56.8974948  59.6958303  97.0173726  55.9885626  59.6425356
  95.8208321  56.8762688  59.3739305 100.2514532  54.9730945  65.6785851
  99.5301118  55.5866912  65.5393325 101.0407788  55.5088709  65.6002497
 103.0540845  52.3085371  71.9526503 103.5775247  52.5547668  72.7152812
 102.8353179  53.1405406  71.5329640  98.4508126  54.5789046  59.8197628
  98.1220833  53.6986425  59.6372734  98.8047497  54.5236714  60.7074017
 101.5649950  54.8662016  60.1873106 101.9046022  55.3947937  59.4651714
 102.0122070  55.2042422  60.9631672 102.4348441  57.0267499  65.8995475
 102.2893022  57.3407802  66.7919757 101.9573645  57.6452400  65.3466374
  96.9094103  59.5672844  68.8383136  96.3647571  60.3432652  68.9703411
  97.7873453  59.9143648  68.6802258  97.6960125  58.6942740  71.7313293
  96.9541861  58.8425375  72.3177924  97.3752869  58.9551006  70.8680043
  98.1416739  66.5808169  63.7623688  98.9674759  66.2811941  63.3822331
  97.7910791  65.8115791  64.2113477  96.3425344  64.4994495  64.7212622
  95.5057252  64.0716670  64.5396623  96.3148989  64.6926939  65.6583413
 103.1822799  54.4116425  75.4253868 103.2310955  55.2878548  75.0431637
 103.7245314  53.8693818  74.8525511 102.6711779  64.4838560  59.3079822
 102.8199899  65.1674025  58.6546495 103.4778222  64.4643650  59.8229278
 100.4264412  60.5103738  60.3140891 100.1810454  59.6066068  60.5121101
 100.5960326  60.5120888  59.3720369  99.6960059  56.2432096  57.8127052
  99.0029304  56.3176450  57.1567088  99.4511811  55.4792439  58.3348569
  95.6574840  57.5603843  64.5061554  95.3377625  56.7069151  64.2135928
  95.1108268  57.7752421  65.2619521  99.4354748  60.2766284  68.2231060
  99.6540758  61.2083392  68.2419094  99.8480522  59.9174259  69.0085864
  95.5263100  61.1806755  66.4754675  94.8326572  60.7660708  65.9624630
  96.2736091  61.2227291  65.8788094  97.4399843  61.1125009  64.3520690
  97.4170531  61.2112696  63.4002573  97.7500479  61.9590159  64.6737856
 100.0987221  63.1701164  68.4667304 101.0530474  63.1385106  68.3997236
  99.8999744  62.7091787  69.2817530 100.6886603  61.7402280  71.0338102
 101.5079492  62.2346358  71.0572939 100.9623411  60.8234248  71.0055670
  98.4537450  68.7120783  65.4837502  98.3191917  67.9521184  64.9175500
  98.0369512  69.4361683  65.0166291 101.6106575  69.6090100  65.6955945
 101.4938960  70.5535533  65.5934635 100.7899022  69.3063662  66.0841744
  95.9421517  56.0740413  71.7330299  96.5880381  55.5639367  72.2217524
  95.7338668  56.8109095  72.3073724 102.6361090  70.2618362  68.9111873
 103.5388336  70.2941972  69.2278368 102.4098460  69.3318813  68.9258209
 100.2819008  53.2208031  75.8305313 101.1450470  52.8644835  76.0408638
  99.7084419  52.8821925  76.5180718  68.3606613   3.6294860  52.3108899
  68.6003212   4.2613384  52.9887917  67.5175810   3.2782900  52.5974258
  77.8227077   9.1710353  52.1255657  78.6148369   8.8301177  51.7101956
  78.0623727   9.2805328  53.0457810  85.8562204  11.3430129  44.5985902
  85.2050183  11.9284209  44.2119915  86.6506566  11.8736324  44.6580939
  79.7817831   8.4319266  44.9973036  80.5548707   7.8848253  44.8585912
  80.1343230   9.2963515  45.2087497  81.6202873   9.7595648  58.2039935
  81.3292739  10.6641279  58.0886602  82.2559858   9.8012176  58.9184005
  81.5613538  16.2101384  48.1660697  81.4837568  17.1609209  48.2449177
  80.9575182  15.8647256  48.8235623  80.5513337   8.1790923  52.9394329
  81.1214694   8.6078192  52.3011814  81.1421449   7.8973508  53.6378515
  84.1203889   9.9015429  57.0187256  84.1848322  10.3635837  57.8545428
  83.4114813   9.2712794  57.1469566  83.8351907  11.5683537  46.8866236
  83.6997582  12.4135073  47.3151084  84.3761720  11.7702815  46.1232170
  77.2881304   9.0858975  47.4594161  77.8005825   9.8802225  47.6099726
  77.9404017   8.3885265  47.3927763  79.0976189  12.2024731  49.5416915
  79.2742817  13.1242696  49.3537899  79.8933023  11.8883150  49.9711294
  85.4620383  12.1907103  61.0166578  85.0184238  11.4043482  60.6987483
  86.1237597  12.3786254  60.3510469  80.2207505  13.7202905  55.5427257
  80.7714930  13.5919968  54.7704251  79.3818980  14.0197794  55.1922150
  87.5601621  12.4709903  59.0447980  87.5420097  13.2918784  58.5528249
  88.4821542  12.3463979  59.2698121  84.0174676   9.9854033  59.8871488
  84.5503012   9.2242321  59.6570796  83.4888757   9.6927685  60.6295643
  75.2530221   7.4147629  48.2353732  76.0905443   7.8244638  48.0187440
  75.4308489   6.4747071  48.2053926  86.4348067  15.6417743  43.3221959
  85.7609766  15.9449440  43.9306917  86.8213889  16.4446823  42.9727416
  88.3820429  12.4815917  49.6290249  88.6743403  13.0420974  48.9102615
  88.8919049  12.7744478  50.3843408  83.3454054  13.2596268  50.7183702
  83.3030233  13.4857114  49.7892234  84.2616753  13.0259642  50.8669503
  81.4619855  10.1359297  50.5145665  82.2560453   9.6409617  50.3128240
  80.7511547   9.6077160  50.1513370  86.2814699  12.5177392  54.8658032
  86.3351721  13.0868329  55.6335748  85.4129480  12.6879277  54.5012070
  84.0391131  10.7088319  54.1943502  83.9002216  10.3407103  55.0669440
  83.2505727  11.2235958  54.0227460  84.6339283  15.8097415  45.5369038
  84.8091038  15.3385458  46.3514661  83.9472071  16.4363181  45.7650299
  85.5896346  10.0869921  51.5832340  85.2546178  10.0470691  52.4789990
  85.0900291   9.4214637  51.1102750  90.1809669  12.1424864  59.5175180
  90.1222215  11.4584084  58.8505763  90.5829187  12.8843854  59.0655806
  79.2000368  18.9586778  52.3108899  79.4396966  19.5905302  52.9887917
  78.3569564  18.6074818  52.5974258  71.8356223   6.4388540  51.0732211
  72.5227263   6.1250270  50.4853226  71.6804352   7.3429904  50.7999462
  83.7128230  14.7665900  54.7150403  83.6398401  15.5720872  55.2269707
  83.2705623  14.9657866  53.8898424  83.5018009  14.0037670  48.2253224
  82.7185531  14.5459351  48.3191449  84.2010754  14.5211650  48.6247465
  86.1726913  14.6652734  56.8708561  86.8854885  15.3000199  56.7984463
  85.6816942  14.7616600  56.0548563  81.2238827  12.4147178  57.6914132
  81.9248286  13.0483661  57.8443526  80.7533942  12.7561909  56.9309771
  89.3493223  10.7565128  45.9762039  89.6253066  10.6421722  46.8855913
  88.4797721  10.3582613  45.9374212  85.9847287  15.0051479  49.6194853
  86.1669681  14.1873134  50.0822605  86.8080273  15.2219171  49.1819743
  86.3189452  13.9319664  46.8809901  86.8477218  13.4212118  46.2680063
  86.5817672  13.6162194  47.7455434  76.8206545  11.9483533  54.6245235
  77.4059982  11.2027221  54.7573139  76.6231383  12.2587490  55.5081899
  79.6745200  14.9834780  49.6407677  79.0055575  15.4680908  49.1571717
  79.5358070  15.2304001  50.5551056  83.8150469  17.0178524  56.2390336
  84.3668777  17.1810145  57.0039421  84.1556662  17.6082962  55.5670360
  88.6661343  11.8439781  62.0938990  89.2101247  12.4569740  61.5993945
  88.0848188  12.4019360  62.6106003  86.9518856  14.9660499  53.2254018
  86.8269995  14.1650239  52.7164963  87.6097947  15.4606693  52.7367988
  89.0153764  12.7669519  54.8533568  88.0684100  12.6474871  54.7811895
  89.3636537  11.8792018  54.9359829  86.0200198  12.5622236  51.0537920
  85.8725160  11.6338943  51.2345490  86.8453691  12.5842326  50.5694995
  89.6234319  13.3850794  52.1402793  90.5480867  13.1793656  52.0027244
  89.4549623  13.1367196  53.0492134  89.4129636  13.9036462  47.4964884
  89.5866513  13.3382884  46.7438737  89.9058527  14.7037357  47.3144374
  75.2306595   5.9151131  55.5628443  74.6860063   6.6910939  55.6948717
  76.1085945   6.2621935  55.4047564  90.4004808  13.2203226  44.5961783
  91.0955713  13.8409919  44.8149097  90.7427958  12.3698578  44.8714160
  83.9616280  14.5837005  58.2538990  84.2703406  14.3386152  59.1261690
  84.7591762  14.7883644  57.7657860  83.9836892  16.7374915  50.4844366
  83.5441882  16.2451294  51.1777223  84.7345009  16.1947883  50.2436442
  76.4629231  12.9286456  50.4868995  77.2887251  12.6290228  50.1067638
  76.1123283  12.1594078  50.9358783  81.4310764  12.2812924  52.5566668
  80.8090773  11.6183629  52.2568896  82.1015631  12.3074056  51.8740316
  74.6637836  10.8472782  51.4457928  73.8269744  10.4194957  51.2641929
  74.6361481  11.0405226  52.3828719  80.9924271  10.8316848  46.0325129
  81.1412391  11.5152312  45.3791801  81.7990714  10.8121938  46.5474584
  84.4919677  13.3264978  43.5036876  83.9193644  13.9455165  43.0507348
  85.0652470  13.8764340  44.0376798  87.7116936  13.6102128  44.6345458
  88.6447609  13.5447690  44.8378334  87.6240149  14.4458395  44.1759991
  90.3404953  12.9267998  41.5949406  90.2618585  12.5927862  42.4885164
  91.1614620  13.4189766  41.5940878  73.8475593   7.5285042  53.1999982
  73.1539064   7.1138995  52.6869936  74.5948584   7.5705579  52.6033401
  75.7612335   7.4603296  51.0765997  75.7383023   7.5590983  50.1247880
  76.0712972   8.3068447  51.3983163  78.4199713   9.5179451  55.1912611
  79.3742967   9.4863393  55.1242543  78.2212237   9.0570075  56.0062837
  79.0099095   8.0880567  57.7583409  79.8291984   8.5824646  57.7818246
  79.2835903   7.1712535  57.7300976  76.7749942  15.0599070  52.2082809
  76.6404410  14.2999471  51.6420807  76.3582004  15.7839970  51.7411598
  87.9108905  10.2435994  41.2159384  88.6144755  10.4485996  41.8317040
  87.1871554  10.8112756  41.4808468  79.9319068  15.9568387  52.4201252
  79.8151452  16.9013820  52.3179942  79.1111514  15.6541949  52.8087051
  80.9573582  16.6096649  55.6357180  81.8600828  16.6420259  55.9523675
  80.7310952  15.6797100  55.6503516  82.7127184  15.3627636  52.2967259
  81.7622815  15.3629497  52.1831631  83.0159670  14.6160370  51.7803293
  98.4479877  21.1988174  53.3613021  99.0858287  21.0794922  52.6576361
  98.3300720  22.1469018  53.4200973  95.2569584  21.1515602  53.2974546
  94.9188095  21.0356667  52.4095081  96.1259352  20.7506767  53.2775552
  91.1156399  23.0051079  49.2871437  90.5521264  22.9141016  48.5187724
  91.0008794  22.1850983  49.7673929  95.7389367  22.3050454  59.2560751
  95.7278007  21.9103252  58.3841255  95.9010006  21.5716527  59.8494523
  88.6620831  24.5002270  52.1255657  89.4542123  24.1593095  51.7101956
  88.9017481  24.6097245  53.0457810  96.6955958  26.6722046  44.5985902
  96.0443938  27.2576127  44.2119915  97.4900321  27.2028241  44.6580939
  90.6211585  23.7611184  44.9973036  91.3942461  23.2140171  44.8585912
  90.9736984  24.6255433  45.2087497  92.4596628  25.0887566  58.2039935
  92.1686494  25.9933197  58.0886602  93.0953612  25.1304093  58.9184005
  93.3852835  22.4664414  54.7941295  93.9816407  22.2420437  54.0798258
  93.4427806  21.7249160  55.3966743  92.9577863  19.9203850  42.6291486
  93.2103384  19.3985371  41.8674949  92.0202422  19.7569995  42.7318169
  98.0021146  18.9239628  50.4366229  98.7884235  18.5059051  50.0856646
  98.2659850  19.8285720  50.6047877  98.1731223  24.3612478  45.1354886
  97.5377056  24.4347105  45.8475791  97.8428630  24.9506077  44.4573965
  92.6774152  21.8231956  44.8315861  92.5610410  21.1476859  45.4996945
  92.7876412  21.3364330  44.0148014  95.0205693  21.2842103  48.5362550
  94.6563900  20.7572724  49.2475472  95.8772809  20.8940572  48.3629035
  94.6611180  16.3132002  43.5323899  94.8285582  17.1812239  43.8994370
  94.4708349  16.4759284  42.6085188  97.4186513  24.7748981  55.1989729
  97.1187236  25.6774020  55.0905536  97.0737572  24.5081165  56.0510882
  90.8698994  21.2262778  51.2326433  89.9449491  21.0938992  51.4404125
  91.1183407  22.0056997  51.7296376 100.8183657  17.2931522  52.8787166
  99.9100534  17.2246930  52.5845927 100.7671252  17.7703466  53.7068992
  94.6400400  18.7689660  44.5170565  94.5200026  19.2146711  45.3556046
  93.9452989  19.1174978  43.9584104  88.2307805  20.8696052  52.0670222
  88.3600186  21.1230531  52.9809634  87.5505257  21.4623760  51.7474878
  92.4007293  31.5393302  48.1660697  92.3231322  32.4901127  48.2449177
  91.7968936  31.1939174  48.8235623  94.8924522  18.7121167  60.8222064
  94.1157856  19.2715087  60.8124928  95.5315085  19.1977950  61.3436934
 102.6845303  15.4947960  54.6565040 102.0419683  15.7880493  54.0104835
 102.1800232  15.3800880  55.4618237 100.3385467  19.2411133  45.3450899
 101.2503323  19.4738520  45.1698597  99.8295114  19.8248177  44.7825978
  93.1470895  21.5206620  60.3840031  93.8885579  22.0591664  60.1074854
  92.4407880  22.1472909  60.5411582  98.6226234  23.6635761  58.9812192
  99.0309590  23.2218171  58.2366824  97.9003496  23.0888388  59.2346385
  94.9757304  18.6008368  56.3545749  95.8218500  19.0247781  56.4980398
  94.9155942  17.9441992  57.0484312  98.9455049  24.2236952  52.7364481
  98.3163911  24.3882666  52.0340549  98.5580711  24.6378561  53.5075445
 102.8244281  25.1591389  50.0908845 102.1395319  25.5390291  49.5405878
 102.9088130  25.7686716  50.8240792  98.1256750  16.2612736  58.0126923
  97.8817682  17.0154797  57.4761198  98.4016680  16.6398084  58.8474170
 100.0795212  22.8051348  56.6904188 100.2912108  23.4483108  56.0138569
 100.0324961  21.9713665  56.2226118  97.6821441  15.4169169  53.5940760
  96.8205920  15.7150423  53.8857498  97.7083876  15.6339568  52.6621793
  94.4983011  23.9611360  50.0014566  94.9621356  24.2399063  49.2119189
  94.2339809  23.0594804  49.8187657  91.3907092  23.5082841  52.9394329
  91.9608449  23.9370110  52.3011814  91.9815204  23.2265426  53.6378515
  93.4351897  20.0834512  46.8104131  94.1375940  20.5355556  47.2778058
  93.1032525  19.4418331  47.4384024  91.8832258  18.6746269  61.1855341
  91.2530919  19.3562549  61.4190737  91.7768346  18.5629350  60.2408479
  87.1777231  18.3418065  52.1121265  86.3876285  18.5975593  51.6361375
  87.6688478  19.1566403  52.2173305 101.1941040  25.6823304  54.8626546
 102.0158484  25.2803491  54.5809227 101.1903443  25.5791538  55.8142661
  89.1291976  18.7062644  49.0704741  88.3323139  18.8181338  49.5888237
  88.9017568  19.0449296  48.2045632  94.9597644  25.2307347  57.0187256
  95.0242076  25.6927754  57.8545428  94.2508568  24.6004712  57.1469566
  85.4614934  18.5948555  54.5436256  85.7122972  19.4795565  54.8093831
  85.9974482  18.4153157  53.7711347  94.6745661  26.8975455  46.8866236
  94.5391336  27.7426990  47.3151084  95.2155474  27.0994732  46.1232170
  91.1613001  12.9767034  63.5480592  90.7679947  12.4233233  64.2228236
  91.9779141  13.2877613  63.9387109  88.1275059  24.4150893  47.4594161
  88.6399579  25.2094143  47.6099726  88.7797772  23.7177183  47.3927763
  89.9369944  27.5316649  49.5416915  90.1136572  28.4534614  49.3537899
  90.7326777  27.2175068  49.9711294  94.0780962  14.3924914  61.1400848
  94.8190675  14.9932067  61.0605311  94.3098885  13.6502551  60.5818891
  89.2222300  19.5781281  59.4179078  89.1075815  18.6766538  59.7186177
  88.3666818  19.8244978  59.0663894  96.3014138  27.5199021  61.0166578
  95.8577992  26.7335400  60.6987483  96.9631351  27.7078172  60.3510469
  91.0601259  29.0494823  55.5427257  91.6108684  28.9211886  54.7704251
  90.2212735  29.3489712  55.1922150  98.3995376  27.8001821  59.0447980
  98.3813851  28.6210702  58.5528249  99.3215296  27.6755896  59.2698121
  94.8568430  25.3145951  59.8871488  95.3896767  24.5534239  59.6570796
  94.3282511  25.0219602  60.6295643  86.0923976  22.7439547  48.2353732
  86.9299198  23.1536555  48.0187440  86.2702243  21.8038989  48.2053926
  97.9888408  20.4114628  43.9237565  97.4735031  21.1819232  44.1625952
  97.7165716  19.7379764  44.5470626  95.5735519  15.2564328  48.9822803
  94.7177115  14.8671179  48.8028442  95.9862471  15.3356289  48.1222589
  93.3477551  12.8749401  52.3880545  94.2130548  12.6792210  52.0286434
  93.4155060  12.6459753  53.3149902 102.9622682  23.1646982  45.8590738
 102.1852125  22.8258142  45.4145901 103.6414163  23.1699605  45.1845703
  97.7774711  18.2841720  45.7497346  97.4724847  18.5987869  46.6007489
  98.7305153  18.3623140  45.7924679  96.2221143  24.4431943  47.3990300
  95.6942504  23.7084703  47.0863538  95.7208646  25.2206619  47.1530268
 101.2013989  22.6380964  52.5157346 100.5437663  23.3280225  52.6037475
 102.0054388  23.0277395  52.8591333  90.9539870  15.1051609  49.7596912
  91.5283622  14.8826791  49.0270105  91.5410853  15.1740304  50.5125513
 100.0119448  20.9925336  50.5661288 100.5251329  21.6255328  51.0682998
 100.6620672  20.3926532  50.2004648  91.2809458  17.1356070  43.7792797
  90.4446770  17.4730757  44.1002072  91.1414227  17.0005050  42.8419934
  94.3673743  22.2612153  40.4025273  93.4600805  22.0301407  40.6016422
  94.8644775  21.4649773  40.5899255  97.2741822  30.9709660  43.3221959
  96.6003521  31.2741357  43.9306917  97.6607644  31.7738741  42.9727416
  96.4900278  18.4674792  52.8119629  95.5722840  18.6889739  52.6541317
  96.9060422  18.5421102  51.9531336  97.2735326  19.8666207  47.9422309
  98.0207145  20.3787605  47.6329431  97.5426916  19.5450260  48.8026703
  95.5461976  22.3624748  44.9249263  94.6373196  22.0783781  45.0221733
  95.5757060  22.7823827  44.0652570 100.7781244  25.9731338  48.6940431
 100.3243571  25.1322248  48.7505621 100.1475211  26.6092736  49.0315211
  99.7214163  16.9023324  49.9241098  98.9836920  16.3900710  50.2551341
  99.9740937  16.4623705  49.1124375  99.2214183  27.8107834  49.6290249
  99.5137157  28.3712891  48.9102615  99.7312804  28.1036395  50.3843408
  86.1150147  20.0830262  48.9064465  85.9174547  19.4899623  48.1815532
  85.5596811  19.7782472  49.6240404  94.0946870  19.9753369  51.0259059
  94.1495480  19.0227205  50.9501535  93.2838072  20.1312808  51.5100357
  95.2438064  23.9033492  42.2637342  94.8057494  23.1869351  41.8042979
  95.9848505  24.1309607  41.7022433  92.0339230  18.5930428  48.7849437
  91.2207096  18.8924599  49.1914630  92.5298225  18.1986117  49.5023920
  94.1847808  28.5888185  50.7183702  94.1423987  28.8149032  49.7892234
  95.1010507  28.3551560  50.8669503  97.6313442  19.0572253  57.6164331
  97.9862830  19.2843726  58.4758797  98.2785573  19.3890630  56.9941587
 103.3611179  22.1790689  48.3213660 103.2229078  22.3692285  47.3934850
 103.0047398  22.9410072  48.7781712  91.5253305  16.1648784  54.4010672
  92.1652684  16.0237543  53.7033636  90.6930836  15.8783297  54.0249274
  92.3013609  25.4651214  50.5145665  93.0954208  24.9701535  50.3128240
  91.5905301  24.9369078  50.1513370  97.1208454  27.8469310  54.8658032
  97.1745476  28.4160246  55.6335748  96.2523235  28.0171195  54.5012070
  88.6096373  19.6094296  46.5905418  87.6793961  19.5478752  46.8075380
  88.7053845  19.0870249  45.7942059  88.5281922  16.1349109  49.1783659
  88.7888739  17.0494442  49.0692820  89.3499094  15.6673552  49.3280272
  90.0006847  17.5486866  56.3482484  90.6729900  17.3404228  55.6995133
  89.1736633  17.3508952  55.9087716  95.9032419  14.1748807  58.3648145
  95.2560334  14.8738757  58.2712621  96.6733434  14.6084951  58.7324393
  99.3111217  24.4397659  61.4398698  99.1596723  24.2108211  60.5228782
  99.3015896  25.3968261  61.4530043  96.0796553  22.0129572  56.4244964
  97.0088613  22.1640732  56.2513932  95.6587583  22.1013593  55.5693611
  94.8784885  26.0380236  54.1943502  94.7395971  25.6699021  55.0669440
  94.0899481  26.5527876  54.0227460  95.4733037  31.1389333  45.5369038
  95.6484793  30.6677376  46.3514661  94.7865825  31.7655099  45.7650299
  96.4290100  25.4161839  51.5832340  96.0939933  25.3762609  52.4789990
  95.9294046  24.7506555  51.1102750  90.4034344  20.8229469  57.1084921
  90.2654142  20.0909708  57.7096460  91.3139268  20.7338369  56.8269109
  99.3649292  22.7617873  41.8569399  98.7478462  22.0364702  41.7602452
  98.8965780  23.5227234  41.5136474  93.0316645  20.5349428  56.5968601
  93.7416263  19.8942621  56.5555219  92.9885953  20.7862323  57.5194781
 101.0203423  27.4716782  59.5175180 100.9615970  26.7876002  58.8505763
 101.4222942  28.2135772  59.0655806  91.7445579  17.5214646  58.4164240
  91.2082936  17.0705385  59.0685836  91.1562287  17.6560555  57.6734704
  90.0394122  34.2878696  52.3108899  90.2790721  34.9197220  52.9887917
  89.1963319  33.9366736  52.5974258  91.1547838  16.9803298  40.9790704
  90.2777304  16.8592099  40.6152950  91.6305591  16.1889376  40.7269592
 101.0220831  25.4356366  57.7489159 100.1347610  25.0982288  57.8715558
 101.5919382  24.7039397  57.9857925  82.6749978  21.7680457  51.0732211
  83.3621018  21.4542188  50.4853226  82.5198107  22.6721822  50.7999462
  87.4784700  16.6570654  55.5017235  87.3942889  16.0496324  54.7667644
  86.6567406  17.1479672  55.5026731  94.5521984  30.0957818  54.7150403
  94.4792156  30.9012790  55.2269707  94.1099377  30.2949784  53.8898424
  94.3411764  29.3329588  48.2253224  93.5579286  29.8751268  48.3191449
  95.0404509  29.8503568  48.6247465  97.6508414  15.1424218  50.8687430
  98.1477113  14.3894180  50.5488500  96.8795395  15.1788534  50.3030639
  97.0120668  29.9944652  56.8708561  97.7248640  30.6292117  56.7984463
  96.5210696  30.0908518  56.0548563  98.7338195  23.8995905  48.4425853
  97.7994473  24.0197367  48.2730557  98.9114863  22.9968372  48.1785863
  94.2343383  17.2841601  50.5959114  93.8641170  16.7312641  51.2840020
  94.7302475  16.6799734  50.0434114 102.1210746  19.7413224  48.9775887
 102.5871198  20.5741216  48.9036190 102.5718246  19.2758206  49.6821146
  92.0632581  27.7439096  57.6914132  92.7642041  28.3775579  57.8443526
  91.5927696  28.0853827  56.9309771 100.1886977  26.0857045  45.9762039
 100.4646821  25.9713640  46.8855913  99.3191476  25.6874530  45.9374212
  99.8633867  20.2983703  55.5166682  99.2105317  20.5459610  54.8619135
 100.2414247  19.4847841  55.1829160  96.8241041  30.3343396  49.6194853
  97.0063436  29.5165052  50.0822605  97.6474027  30.5511088  49.1819743
  97.1583207  29.2611581  46.8809901  97.6870973  28.7504036  46.2680063
  97.4211426  28.9454112  47.7455434  95.9121440  21.0403514  62.0032720
  95.2362077  20.9397643  62.6735095  96.7349074  20.8842728  62.4668717
  87.6600299  27.2775451  54.6245235  88.2453736  26.5319139  54.7573139
  87.4625138  27.5879407  55.5081899  90.5138954  30.3126698  49.6407677
  89.8449330  30.7972826  49.1571717  90.3751824  30.5595918  50.5551056
  82.2517954  19.8481051  53.3449678  82.2902054  19.3144642  54.1386796
  81.7458247  19.3216256  52.7260655  94.6544223  32.3470442  56.2390336
  95.2062531  32.5102063  57.0039421  94.9950417  32.9374879  55.5670360
  89.6308716  14.6945591  56.8412220  89.6950043  15.5560422  56.4289618
  89.5675837  14.0819593  56.1084579  89.1060989  16.7668724  60.4885255
  89.7333028  16.3845801  61.1022779  88.2488908  16.5482926  60.8540947
  99.5055097  27.1731699  62.0938990 100.0495001  27.7861657  61.5993945
  98.9241942  27.7311277  62.6106003  85.8826532  18.5745153  46.4203609
  86.1779973  17.6655831  46.3670663  84.9814567  18.5532892  46.0984612
  97.7912610  30.2952417  53.2254018  97.6663750  29.4942157  52.7164963
  98.4491701  30.7898610  52.7367988  89.4120779  16.6501150  52.4031158
  88.6907364  17.2637117  52.2638631  90.2014034  17.1858914  52.3247804
  99.8547519  28.0961437  54.8533568  98.9077854  27.9766788  54.7811895
 100.2030292  27.2083935  54.9359829  92.2147092  13.9855576  58.6771810
  92.7381494  14.2317873  59.4398119  91.9959425  14.8175611  58.2574947
  87.6114373  16.2559251  46.5442935  87.2827079  15.3756630  46.3618040
  87.9653744  16.2006919  47.4319324  96.8593952  27.8914153  51.0537920
  96.7118914  26.9630861  51.2345490  97.6847446  27.9134244  50.5694995
  90.7256196  16.5432220  46.9118412  91.0652269  17.0718142  46.1897021
  91.1728317  16.8812627  47.6876979 100.4628074  28.7142712  52.1402793
 101.3874621  28.5085573  52.0027244 100.2943377  28.4659113  53.0492134
  93.4199637  14.9269271  56.3621480  93.0796458  14.1277084  56.7642160
  92.7138643  15.2270982  55.7898313  92.7124343  15.0406842  45.1111705
  93.4332706  15.4188095  44.6075422  92.0889648  15.7595719  45.2146683
  96.8555466  15.7451991  46.0470037  97.0719081  16.6276629  45.7458865
  96.3749534  15.3538204  45.3175679  91.5954688  18.7037704  52.6240782
  91.4499268  19.0178007  53.5165063  91.1179891  19.3222605  52.0711681
  93.4551071  15.6940252  52.6721671  93.4412639  14.7981346  52.3353969
  94.1723499  15.7010916  53.3059957  95.3077201  16.1277592  54.7174799
  95.0494979  17.0494663  54.7159129  94.7762242  15.7308027  55.4075263
 100.2523390  29.2328380  47.4964884 100.4260268  28.6674802  46.7438737
 100.7452281  30.0329274  47.3144374  86.0700350  21.2443049  55.5628443
  85.5253818  22.0202857  55.6948717  86.9479700  21.5913853  55.4047564
  92.8587967  14.5754633  47.9409242  92.9803878  13.6471279  48.1400129
  92.5690009  14.5893318  47.0287557 101.2398563  28.5495144  44.5961783
 101.9349467  29.1701837  44.8149097 101.5821713  27.6990495  44.8714160
  86.8566372  20.3712945  58.4558600  86.1148108  20.5195580  59.0423230
  86.5359116  20.6321211  57.5925349 103.1389986  25.9994849  46.1249113
 103.6641310  26.3382122  45.3998433 103.0512338  25.0641865  45.9412248
  94.8010034  29.9128923  58.2538990  95.1097161  29.6678070  59.1261690
  95.5985516  30.1175562  57.7657860  94.8230646  32.0666833  50.4844366
  94.3835637  31.5743211  51.1777223  95.5738763  31.5239800  50.2436442
  87.3022985  28.2578374  50.4868995  88.1281005  27.9582146  50.1067638
  86.9517037  27.4885996  50.9358783  92.2704519  27.6104842  52.5566668
  91.6484528  26.9475547  52.2568896  92.9409386  27.6365974  51.8740316
  85.5031590  26.1764700  51.4457928  84.6663499  25.7486874  51.2641929
  85.4755236  26.3697143  52.3828719  92.3429046  16.0886630  62.1499174
  92.3917202  16.9648753  61.7676944  92.8851560  15.5464023  61.5770817
 102.8283892  26.6327753  61.4300311 102.0379435  26.6151892  60.8904811
 102.5917246  27.1716047  62.1849348 102.9481767  23.4820220  58.7433040
 102.9979772  23.3170227  59.6848563 102.8395690  22.6147479  58.3530921
  91.8318026  26.1608765  46.0325129  91.9806146  26.8444230  45.3791801
  92.6384469  26.1413855  46.5474584 100.2385529  19.4651148  60.0592346
 101.1395392  19.3257612  59.7676344 100.3133504  19.6305602  60.9990524
  94.5728335  16.8418002  58.9045533  93.7031644  17.1351568  58.6328121
  94.8087815  17.4258447  59.6252796 102.6987152  21.0249776  57.4555119
 103.1741273  21.2177422  56.6473971 101.7752717  21.0808961  57.2098503
  89.5870658  22.1873943  47.0386198  89.3416700  21.2836273  47.2366408
  89.7566573  22.1891093  46.0965676  88.8566306  17.9202300  44.5372359
  88.1635551  17.9946655  43.8812395  88.6118058  17.1562644  45.0593876
  95.3313431  28.6556896  43.5036876  94.7587398  29.2747083  43.0507348
  95.9046225  29.2056257  44.0376798 101.3988821  17.9015536  55.6883425
 102.3506244  18.0013633  55.7095649 101.2292271  17.1093804  56.1981509
  99.4203200  14.9871119  55.8742826  98.8253132  15.2676132  55.1789314
  99.1352897  15.4765020  56.6459567  98.5510691  28.9394046  44.6345458
  99.4841364  28.8739607  44.8378334  98.4633904  29.7750313  44.1759991
 101.1798707  28.2559916  41.5949406 101.1012339  27.9219780  42.4885164
 102.0008374  28.7481684  41.5940878  95.7160230  19.9917708  40.8452929
  96.6619334  19.8623917  40.9141347  95.3374474  19.2532370  41.3222357
  95.5998922  24.0435455  62.3053586  96.5201932  24.2214054  62.4993632
  95.5648505  23.0991500  62.1533285  93.9003147  17.9167685  40.7807814
  92.9934602  17.6200798  40.8570527  94.1779128  17.6197503  39.9142100
  84.8181087  19.2374048  51.2306860  84.4983871  18.3839356  50.9381234
  84.2714515  19.4522626  51.9864828  88.5960995  21.9536489  54.9476367
  88.8147004  22.8853597  54.9664401  89.0086768  21.5944464  55.7331171
  93.4688860  17.5269695  64.3379116  93.3685587  18.4764052  64.2691207
  93.2510402  17.1987934  63.4655186  92.6701931  14.7754620  40.9219793
  93.5321095  15.1009518  41.1815610  92.8552275  13.9886116  40.4092859
  84.6869347  22.8576960  53.1999982  83.9932819  22.4430912  52.6869936
  85.4342338  22.8997496  52.6033401  93.3320130  20.9566834  63.1544177
  92.8487212  21.7567194  63.3608066  93.4181069  20.9674779  62.2011621
  86.6006090  22.7895213  51.0765997  86.5776778  22.8882901  50.1247880
  86.9106726  23.6360364  51.3983163  89.2593467  24.8471368  55.1912611
  90.2136721  24.8155311  55.1242543  89.0605991  24.3861992  56.0062837
  89.8492850  23.4172485  57.7583409  90.6685739  23.9116563  57.7818246
  90.1229657  22.5004453  57.7300976  99.6059446  15.8083237  47.1211364
  98.7185301  16.0932887  46.9031559 100.0213435  15.6477000  46.2738641
 102.9573982  15.8329758  50.8365704 103.7334372  16.3226210  51.1090320
 102.2322116  16.2587812  51.2937573  87.6143696  30.3890988  52.2082809
  87.4798164  29.6291389  51.6420807  87.1975759  31.1131888  51.7411598
  98.7502659  25.5727912  41.2159384  99.4538509  25.7777914  41.8317040
  98.0265308  26.1404673  41.4808468  99.5800470  21.3237773  47.3361654
  99.5235671  21.7806324  46.4969287 100.1328812  20.5628457  47.1584497
 103.3905275  17.1127505  48.1611774 103.1342210  16.7124140  48.9919982
 102.7658144  17.8271299  48.0361913  90.7712822  31.2860305  52.4201252
  90.6545206  32.2305737  52.3179942  89.9505268  30.9833867  52.8087051
 100.6589357  26.0110441  43.2657844 101.4934961  25.5791639  43.0835319
 100.4973700  25.8392454  44.1934739 100.3135249  22.5142554  44.6314184
 100.2584053  22.3486825  43.6902628  99.6881304  23.2218587  44.7876373
  85.1027764  17.7510618  58.4575606  85.7486627  17.2409572  58.9462831
  84.8944915  18.4879300  59.0319031  97.6281156  24.8191466  63.9567746
  98.4972316  24.9932118  63.5954381  97.1487908  25.6385883  63.8343476
  91.7967336  31.9388567  55.6357180  92.6994583  31.9712177  55.9523675
  91.5704706  31.0089018  55.6503516  93.5520938  30.6919553  52.2967259
  92.6016569  30.6921415  52.1831631  93.8553424  29.9452288  51.7803293
  89.4425255  14.8978235  62.5550620  90.3056716  14.5415040  62.7653945
  88.8690666  14.5592130  63.2426024 101.9550154  38.3342996  49.2871437
 101.3915019  38.2432933  48.5187724 101.8402549  37.5142901  49.7673929
  99.5014586  39.8294188  52.1255657 100.2935878  39.4885013  51.7101956
  99.7411236  39.9389163  53.0457810 101.4605340  39.0903101  44.9973036
 102.2336216  38.5432088  44.8585912 101.8130738  39.9547351  45.2087497
 103.5167906  37.1523873  44.8315861 103.4004164  36.4768777  45.4996945
 103.6270166  36.6656247  44.0148014 101.7092749  36.5554696  51.2326433
 100.7843245  36.4230910  51.4404125 101.9577162  37.3348915  51.7296376
  99.0701560  36.1987969  52.0670222  99.1993941  36.4522448  52.9809634
  98.3899011  36.7915677  51.7474878 103.2401047  46.8685219  48.1660697
 103.1625077  47.8193044  48.2449177 102.6362691  46.5231092  48.8235623
 102.2300846  38.8374759  52.9394329 102.8002203  39.2662027  52.3011814
 102.8208958  38.5557344  53.6378515 102.7226013  34.0038186  61.1855341
 102.0924673  34.6854467  61.4190737 102.6162101  33.8921268  60.2408479
  98.0170985  33.6709982  52.1121265  97.2270039  33.9267511  51.6361375
  98.5082233  34.4858320  52.2173305  99.9685731  34.0354562  49.0704741
  99.1716894  34.1473256  49.5888237  99.7411323  34.3741214  48.2045632
  96.3008688  33.9240473  54.5436256  96.5516727  34.8087483  54.8093831
  96.8368237  33.7445074  53.7711347 102.0006756  28.3058952  63.5480592
 101.6073701  27.7525151  64.2228236 102.8172896  28.6169531  63.9387109
  98.9668813  39.7442810  47.4594161  99.4793334  40.5386061  47.6099726
  99.6191526  39.0469101  47.3927763 100.7763698  42.8608567  49.5416915
 100.9530326  43.7826531  49.3537899 101.5720532  42.5466986  49.9711294
 100.0616055  34.9073198  59.4179078  99.9469570  34.0058456  59.7186177
  99.2060572  35.1536895  59.0663894 101.8995014  44.3786740  55.5427257
 102.4502439  44.2503804  54.7704251 101.0606489  44.6781629  55.1922150
  96.9317730  38.0731465  48.2353732  97.7692952  38.4828473  48.0187440
  97.1095998  37.1330907  48.2053926 101.7933625  30.4343527  49.7596912
 102.3677377  30.2118708  49.0270105 102.3804607  30.5032221  50.5125513
 102.1203212  32.4647988  43.7792797 101.2840524  32.8022675  44.1002072
 101.9807982  32.3296968  42.8419934  96.9543901  35.4122180  48.9064465
  96.7568301  34.8191541  48.1815532  96.3990565  35.1074390  49.6240404
 102.8732985  33.9222346  48.7849437 102.0600850  34.2216517  49.1914630
 103.3691979  33.5278035  49.5023920 102.3647060  31.4940702  54.4010672
 103.0046439  31.3529461  53.7033636 101.5324590  31.2075215  54.0249274
  99.4490127  34.9386214  46.5905418  98.5187715  34.8770669  46.8075380
  99.5447599  34.4162167  45.7942059  99.3675676  31.4641027  49.1783659
  99.6282493  32.3786360  49.0692820 100.1892848  30.9965469  49.3280272
 100.8400601  32.8778784  56.3482484 101.5123655  32.6696146  55.6995133
 100.0130388  32.6800870  55.9087716 101.2428099  36.1521387  57.1084921
 101.1047897  35.4201626  57.7096460 102.1533022  36.0630287  56.8269109
 102.5839333  32.8506564  58.4164240 102.0476690  32.3997302  59.0685836
 101.9956042  32.9852473  57.6734704 100.8787877  49.6170613  52.3108899
 101.1184475  50.2489137  52.9887917 100.0357073  49.2658653  52.5974258
 101.9941592  32.3095215  40.9790704 101.1171059  32.1884016  40.6152950
 102.4699345  31.5181294  40.7269592  93.5143732  37.0972375  51.0732211
  94.2014772  36.7834105  50.4853226  93.3591861  38.0013740  50.7999462
  98.3178455  31.9862572  55.5017235  98.2336643  31.3788241  54.7667644
  97.4961161  32.4771590  55.5026731 102.9026336  43.0731013  57.6914132
 103.6035795  43.7067496  57.8443526 102.4321451  43.4145745  56.9309771
  98.4994054  42.6067368  54.6245235  99.0847491  41.8611056  54.7573139
  98.3018892  42.9171325  55.5081899 101.3532709  45.6418616  49.6407677
 100.6843084  46.1264743  49.1571717 101.2145579  45.8887836  50.5551056
  93.0911709  35.1772969  53.3449678  93.1295808  34.6436559  54.1386796
  92.5852001  34.6508174  52.7260655 100.4702471  30.0237509  56.8412220
 100.5343797  30.8852340  56.4289618 100.4069591  29.4111511  56.1084579
  99.9454743  32.0960642  60.4885255 100.5726782  31.7137719  61.1022779
  99.0882662  31.8774844  60.8540947  96.7220286  33.9037071  46.4203609
  97.0173727  32.9947749  46.3670663  95.8208322  33.8824810  46.0984612
 100.2514533  31.9793067  52.4031158  99.5301119  32.5929035  52.2638631
 101.0407789  32.5150832  52.3247804 103.0540847  29.3147494  58.6771810
 103.5775248  29.5609790  59.4398119 102.8353180  30.1467529  58.2574947
  98.4508128  31.5851168  46.5442935  98.1220834  30.7048547  46.3618040
  98.8047498  31.5298837  47.4319324 101.5649951  31.8724138  46.9118412
 101.9046023  32.4010059  46.1897021 102.0122071  32.2104544  47.6876979
 102.4348442  34.0329622  52.6240782 102.2893023  34.3469925  53.5165063
 101.9573646  34.6514522  52.0711681  96.9094104  36.5734966  55.5628443
  96.3647572  37.3494774  55.6948717  97.7873454  36.9205771  55.4047564
  97.6960126  35.7004863  58.4558600  96.9541862  35.8487498  59.0423230
  97.3752871  35.9613128  57.5925349  98.1416740  43.5870291  50.4868995
  98.9674760  43.2874063  50.1067638  97.7910792  42.8177914  50.9358783
  96.3425345  41.5056618  51.4457928  95.5057253  41.0778792  51.2641929
  96.3148990  41.6989061  52.3828719 103.1822801  31.4178548  62.1499174
 103.2310956  32.2940670  61.7676944 103.7245315  30.8755941  61.5770817
 102.6711780  41.4900683  46.0325129 102.8199900  42.1736147  45.3791801
 103.4778223  41.4705773  46.5474584 100.4264413  37.5165861  47.0386198
 100.1810455  36.6128191  47.2366408 100.5960328  37.5183011  46.0965676
  99.6960061  33.2494218  44.5372359  99.0029305  33.3238573  43.8812395
  99.4511812  32.4854562  45.0593876  95.6574842  34.5665966  51.2306860
  95.3377626  33.7131274  50.9381234  95.1108270  34.7814544  51.9864828
  99.4354749  37.2828407  54.9476367  99.6540759  38.2145515  54.9664401
  99.8480523  36.9236381  55.7331171  95.5263102  38.1868877  53.1999982
  94.8326573  37.7722830  52.6869936  96.2736093  38.2289414  52.6033401
  97.4399844  38.1187131  51.0765997  97.4170532  38.2174818  50.1247880
  97.7500481  38.9652282  51.3983163 100.0987222  40.1763286  55.1912611
 101.0530476  40.1447229  55.1242543  99.8999746  39.7153910  56.0062837
 100.6886604  38.7464402  57.7583409 101.5079493  39.2408481  57.7818246
 100.9623412  37.8296370  57.7300976  98.4537451  45.7182906  52.2082809
  98.3191919  44.9583307  51.6420807  98.0369513  46.4423806  51.7411598
 101.6106577  46.6152223  52.4201252 101.4938961  47.5597655  52.3179942
 100.7899023  46.3125784  52.8087051  95.9421518  33.0802536  58.4575606
  96.5880382  32.5701490  58.9462831  95.7338669  33.8171218  59.0319031
 102.6361091  47.2680485  55.6357180 103.5388337  47.3004095  55.9523675
 102.4098461  46.3380936  55.6503516 100.2819009  30.2270153  62.5550620
 101.1450471  29.8706958  62.7653945  99.7084420  29.8884048  63.2426024
  90.0394124  11.2940818  39.0354205  90.2790722  11.9259342  39.7133224
  89.1963320  10.9428858  39.3219565  99.5014587  16.8356311  38.8500964
 100.2935879  16.4947135  38.4347263  99.7411237  16.9451286  39.7703117
 101.4605341  16.0965224  31.7218343 102.2336217  15.5494211  31.5831218
 101.8130740  16.9609473  31.9332804 103.2401048  23.8747342  34.8906003
 103.1625078  24.8255167  34.9694484 102.6362692  23.5293214  35.5480930
 102.2300848  15.8436881  39.6639636 102.8002205  16.2724150  39.0257120
 102.8208959  15.5619466  40.3623822  98.9668815  16.7504933  34.1839468
  99.4793335  17.5448183  34.3345033  99.6191527  16.0531223  34.1173070
 100.7763699  19.8670689  36.2662221 100.9530328  20.7888654  36.0783205
 101.5720533  19.5529108  36.6956601 101.8995015  21.3848863  42.2672564
 102.4502440  21.2565926  41.4949558 101.0606491  21.6843752  41.9167456
  96.9317731  15.0793587  34.9599039  97.7692953  15.4890596  34.7432746
  97.1095999  14.1393029  34.9299233 100.8787878  26.6232736  39.0354205
 101.1184476  27.2551260  39.7133224 100.0357075  26.2720776  39.3219565
  93.5143734  14.1034498  37.7977517  94.2014773  13.7896228  37.2098533
  93.3591862  15.0075862  37.5244769 102.9026337  20.0793136  44.4159439
 103.6035796  20.7129619  44.5688833 102.4321452  20.4207867  43.6555078
  98.4994055  19.6129491  41.3490541  99.0847492  18.8673179  41.4818446
  98.3018893  19.9233448  42.2327205 101.3532710  22.6480738  36.3652984
 100.6843086  23.1326866  35.8817024 101.2145580  22.8949959  37.2796362
  96.9094106  13.5797089  42.2873750  96.3647574  14.3556897  42.4194024
  97.7873456  13.9267893  42.1292871  98.1416741  20.5932414  37.2114301
  98.9674761  20.2936186  36.8312945  97.7910793  19.8240036  37.6604090
  96.3425346  18.5118740  38.1703235  95.5057255  18.0840915  37.9887236
  96.3148992  18.7051184  39.1074026 102.6711781  18.4962805  32.7570435
 102.8199902  19.1798270  32.1037108 103.4778225  18.4767896  33.2719891
  95.5263103  15.1931000  39.9245288  94.8326574  14.7784953  39.4115243
  96.2736094  15.2351536  39.3278707  97.4399845  15.1249254  37.8011303
  97.4170533  15.2236941  36.8493186  97.7500482  15.9714405  38.1228469
 100.0987223  17.1825409  41.9157918 101.0530477  17.1509351  41.8487849
  99.8999747  16.7216033  42.7308144 100.6886605  15.7526525  44.4828715
 101.5079494  16.2470603  44.5063553 100.9623413  14.8358493  44.4546283
  98.4537452  22.7245028  38.9328116  98.3191920  21.9645429  38.3666114
  98.0369514  23.4485928  38.4656904 101.6106578  23.6214345  39.1446558
 101.4938962  24.5659778  39.0425249 100.7899024  23.3187907  39.5332357
 102.6361092  24.2742607  42.3602487 103.5388339  24.3066217  42.6768982
 102.4098462  23.3443058  42.3748822  20.8199672  57.3305885  97.7004672
  20.1687651  57.9159966  97.3138686  21.6144034  57.8612080  97.7599709
  14.7455299  54.4195022  98.0991806  15.5186175  53.8724010  97.9604682
  15.0980698  55.2839272  98.3106268  17.0821577  50.5787689  95.7310256
  17.3347097  50.0569210  94.9693719  16.1446136  50.4153834  95.8336940
  22.2974937  55.0196317  98.2373656  21.6620770  55.0930944  98.9494561
  21.9672343  55.6089916  97.5592736  16.8017865  52.4815795  97.9334631
  16.6854123  51.8060698  98.6015716  16.9120125  51.9948168  97.1166784
  18.7854893  46.9715841  96.6342669  18.9529295  47.8396078  97.0013140
  18.5952062  47.1343123  95.7103958  18.7644114  49.4273499  97.6189336
  18.6443739  49.8730550  98.4574816  18.0696702  49.7758816  97.0602874
  24.4629180  49.8994972  98.4469670  25.3747036  50.1322359  98.2717367
  23.9538827  50.4832016  97.8844748  26.9487994  55.8175228 103.1927615
  26.2639033  56.1974130 102.6424648  27.0331844  56.4270555 103.9259563
  33.4090747  52.6845891 104.3130287  32.6554455  52.1153289 104.1574292
  33.5438288  52.6508556 105.2600922  18.7989375  57.5559294  99.9885007
  18.6635050  58.4010829 100.4169855  19.3399188  57.7578571  99.2250941
  12.2518772  55.0734732 100.5612932  12.7643293  55.8677982 100.7118497
  12.9041485  54.3761022 100.4946533  22.1132121  51.0698467  97.0256335
  21.5978745  51.8403071  97.2644723  21.8409430  50.3963603  97.6489397
  27.0866395  53.8230821  98.9609509  26.3095838  53.4841981  98.5164671
  27.7657876  53.8283444  98.2864474  21.9018424  48.9425559  98.8516117
  21.5968560  49.2571708  99.7026260  22.8548867  49.0206979  98.8943449
  20.3464856  55.1015782 100.5009070  19.8186218  54.3668542 100.1882308
  19.8452359  55.8790458 100.2549039  15.4053171  47.7939909  96.8811567
  14.5690483  48.1314596  97.2020842  15.2657941  47.6588889  95.9438704
  18.4917457  52.9195992  93.5044044  17.5844518  52.6885246  93.7035192
  18.9888489  52.1233611  93.6918025  21.3985535  61.6293499  96.4240730
  20.7247234  61.9325196  97.0325688  21.7851357  62.4322580  96.0746187
  19.6705690  53.0208587  98.0268034  18.7616909  52.7367620  98.1240503
  19.7000774  53.4407666  97.1671340  24.9024957  56.6315177 101.7959201
  24.4487284  55.7906086 101.8524392  24.2718924  57.2676575 102.1333981
  23.3457897  58.4691673 102.7309019  23.6380871  59.0296730 102.0121385
  23.8556517  58.7620234 103.4862178  19.3681778  54.5617331  95.3656112
  18.9301208  53.8453190  94.9061750  20.1092219  54.7893446  94.8041204
  18.3091522  59.2472024 103.8202473  18.2667701  59.4732871 102.8911005
  19.2254221  59.0135399 103.9688274  27.4854893  52.8374528 101.4232431
  27.3472791  53.0276124 100.4953620  27.1291111  53.5993911 101.8800482
  19.5976751  61.7973172  98.6387809  19.7728506  61.3261215  99.4533432
  18.9109539  62.4238938  98.8669070  23.4893005  53.4201712  94.9588170
  22.8722176  52.6948541  94.8621222  23.0209494  54.1811073  94.6155244
  15.2791551  47.6387137  94.0809474  14.4021018  47.5175937  93.7171721
  15.7549304  46.8473215  93.8288363  18.4655477  59.9913427 101.3271995
  17.6822999  60.5335107 101.4210219  19.1648223  60.5087407 101.7266236
  22.8581908  54.5579744 101.5444623  21.9238187  54.6781206 101.3749328
  23.0358577  53.6552210 101.2804633  26.2454459  50.3997063 102.0794657
  26.7114912  51.2325055 102.0054960  26.6961960  49.9342045 102.7839916
  24.3130691  56.7440884  99.0780810  24.5890534  56.6297479  99.9874684
  23.4435189  56.3458369  99.0392983  20.9484755  60.9927235 102.7213623
  21.1307149  60.1748891 103.1841375  21.7717741  61.2094927 102.2838513
  21.2826920  59.9195420  99.9828672  21.8114687  59.4087875  99.3698834
  21.5455140  59.6037950 100.8474205  21.9156324  60.9536256 106.3272788
  21.7907463  60.1525996 105.8183734  22.5735415  61.4482449 105.8386758
  20.9837666  58.5497992 104.1556690  20.8362628  57.6214700 104.3364260
  21.8091159  58.5718083 103.6713766  24.5871787  59.3726551 105.2421563
  25.5118335  59.1669412 105.1046014  24.4187091  59.1242952 106.1510905
  20.9799180  46.4035830  99.1488808  21.1962794  47.2860468  98.8477636
  20.4993247  46.0122043  98.4194450  24.3767104  59.8912218 100.5983655
  24.5503981  59.3258641  99.8457507  24.8695995  60.6913113 100.4163145
  30.2306495  52.6548641 102.2173954  30.6737641  51.9055967 101.8193078
  29.3533005  52.6458778 101.8347686  25.3642276  59.2078983  97.6980553
  26.0593181  59.8285676  97.9167868  25.7065426  58.3574334  97.9732931
  27.2633699  56.6578688  99.2267884  27.7885023  56.9965961  98.5017204
  27.1756052  55.7225704  99.0431018  15.9561739  56.8192604  99.1343899
  16.1049859  57.5028069  98.4810572  16.7628183  56.7997694  99.6493355
  29.7739360  54.1253880 104.6096402  30.6086251  54.5643684 104.7733962
  29.9098488  53.6492533 103.7904648  19.4557145  59.3140735  96.6055646
  18.8831112  59.9330922  96.1526118  20.0289938  59.8640096  97.1395568
  22.6754404  59.5977885  97.7364229  23.6085078  59.5323446  97.9397104
  22.5877617  60.4334152  97.2778761  25.3042421  58.9143755  94.6968176
  25.2256053  58.5803619  95.5903934  26.1252088  59.4065523  94.6959649
  19.8403943  50.6501547  93.9471699  20.7863048  50.5207755  94.0160117
  19.4618188  49.9116209  94.4241127  33.8197162  52.8421501 107.0450532
  34.5500551  52.5806789 107.6058235  33.2104108  52.1050223 107.0852600
  18.0246860  48.5751524  93.8826584  17.1178316  48.2784636  93.9589298
  18.3022841  48.2781342  93.0160870  16.7945645  45.4338459  94.0238563
  17.6564809  45.7593357  94.2834381  16.9795989  44.6469955  93.5111629
  23.7303159  46.4667076 100.2230135  22.8429014  46.7516726 100.0050329
  24.1457148  46.3060839  99.3757412  22.8746373  56.2311750  94.3178155
  23.5782223  56.4361753  94.9335810  22.1509022  56.7988512  94.5827238
  23.7044183  51.9821612 100.4380425  23.6479385  52.4390163  99.5988057
  24.2572526  51.2212296 100.2603268  27.5148989  47.7711344 101.2630544
  27.2585923  47.3707979 102.0938752  26.8901857  48.4855138 101.1380683
  31.8261327  50.5107417 103.7701836  31.2660885  50.5800606 104.5433398
  31.2204830  50.3348401 103.0501332  24.7833070  56.6694280  96.3676615
  25.6178674  56.2375478  96.1854089  24.6217413  56.4976293  97.2953509
  24.4378962  53.1726393  97.7332954  24.3827766  53.0070664  96.7921398
  23.8125018  53.8802426  97.8895144  33.4117345  67.1863931 106.4631791
  34.0495755  67.0670678 105.7595132  33.2938188  68.1344775 106.5219744
  30.2207052  67.1391359 106.3993316  29.8825563  67.0232424 105.5113851
  31.0896820  66.7382524 106.3794322  26.0793867  68.9926835 102.3890207
  25.5158732  68.9016772 101.6206495  25.9646262  68.1726740 102.8692700
  31.6593426  72.6597803  97.7004672  31.0081406  73.2451883  97.3138686
  32.4537789  73.1903998  97.7599709  25.5849053  69.7486940  98.0991806
  26.3579929  69.2015927  97.9604682  25.9374452  70.6131189  98.3106268
  27.9215331  65.9079606  95.7310256  28.1740852  65.3861128  94.9693719
  26.9839890  65.7445752  95.8336940  32.9658614  64.9115385 103.5384999
  33.7521703  64.4934808 103.1875417  33.2297318  65.8161477 103.7066648
  33.1368691  70.3488235  98.2373656  32.5014524  70.4222861  98.9494561
  32.8066098  70.9381834  97.5592736  38.3667041  64.8490618 104.4417978
  39.0992213  64.2789835 104.6755807  37.6106397  64.4612218 104.8824484
  27.6411620  67.8107712  97.9334631  27.5247878  67.1352616  98.6015716
  27.7513880  67.3240086  97.1166784  29.9843161  67.2717859 101.6381320
  29.6201368  66.7448480 102.3494242  30.8410277  66.8816328 101.4647806
  35.8892461  58.5612192 108.9012587  35.5575786  59.4307603 108.6773802
  35.2938075  58.2448476 109.5806617  29.6248648  62.3007759  96.6342669
  29.7923050  63.1687995  97.0013140  29.4345817  62.4635041  95.7103958
  32.3823981  70.7624738 108.3008499  32.0824704  71.6649777 108.1924307
  32.0375040  70.4956921 109.1529652  25.8336462  67.2138535 104.3345204
  24.9086959  67.0814749 104.5422896  26.0820876  67.9932754 104.8315146
  35.7821125  63.2807278 105.9805937  34.8738002  63.2122687 105.6864698
  35.7308720  63.7579223 106.8087762  29.6037869  64.7565416  97.6189336
  29.4837494  65.2022467  98.4574816  28.9090457  65.1050734  97.0602874
  37.6482771  61.4823716 107.7583811  37.0057151  61.7756250 107.1123605
  37.1437700  61.3676637 108.5637007  35.3022935  65.2286890  98.4469670
  36.2140791  65.4614276  98.2717367  34.7932582  65.8123934  97.8844748
  29.9394772  64.5884124 109.4564519  30.7855968  65.0123538 109.5999168
  29.8793410  63.9317749 110.1503082  33.9092517  70.2112708 105.8383251
  33.2801379  70.3758422 105.1359319  33.5218179  70.6254318 106.6094215
  37.7881749  71.1467146 103.1927615  37.1032787  71.5266047 102.6424648
  37.8725598  71.7562473 103.9259563  33.0894218  62.2488493 111.1145693
  32.8455150  63.0030553 110.5779969  33.3654148  62.6273840 111.9492940
  35.0432680  68.7927105 109.7922959  35.2549576  69.4358865 109.1157340
  34.9962429  67.9589422 109.3244889  32.6458909  61.4044926 106.6959531
  31.7843388  61.7026179 106.9876268  32.6721344  61.6215325 105.7640563
  29.4620479  69.9487116 103.1033336  29.9258824  70.2274819 102.3137959
  29.1977277  69.0470561 102.9206427  28.3989365  66.0710269  99.9122902
  29.1013408  66.5231312 100.3796828  28.0669993  65.4294087 100.5402795
  36.1578508  71.6699060 107.9645316  36.9795952  71.2679248 107.6827998
  36.1540911  71.5667295 108.9161432  24.0929444  64.6938400 102.1723512
  23.2960608  64.8057095 102.6907007  23.8655036  65.0325053 101.3064402
  44.2484501  68.0137809 104.3130287  43.4948210  67.4445207 104.1574292
  44.3832043  67.9800473 105.2600922  29.6383130  72.8851211  99.9885007
  29.5028804  73.7302747 100.4169855  30.1792942  73.0870489  99.2250941
  23.0912527  70.4026649 100.5612932  23.6037047  71.1969899 100.7118497
  23.7435240  69.7052940 100.4946533  32.9875593  56.4081773 108.5183900
  32.6439862  57.2983415 108.4423011  33.3554556  56.2183431 107.6553485
  32.9525876  66.3990384  97.0256335  32.4372499  67.1694989  97.2644723
  32.6803184  65.7255520  97.6489397  30.5372987  61.2440085 102.0841574
  29.6814583  60.8546935 101.9047212  30.9499939  61.3232046 101.2241359
  32.0672133  58.7786428 106.4833133  31.5636929  58.7416563 105.6700939
  32.3602740  59.6879171 106.5429790  28.3115019  58.8625158 105.4899315
  29.1768016  58.6667967 105.1305205  28.3792528  58.6335510 106.4168672
  37.9260150  69.1522739  98.9609509  37.1489593  68.8133898  98.5164671
  38.6051631  69.1575362  98.2864474  32.7412179  64.2717476  98.8516117
  32.4362315  64.5863625  99.7026260  33.6942621  64.3498896  98.8943449
  31.1858611  70.4307700 100.5009070  30.6579972  69.6960459 100.1882308
  30.6846114  71.2082376 100.2549039  36.1651457  68.6256720 105.6176117
  35.5075131  69.3155981 105.7056245  36.9691856  69.0153152 105.9610103
  25.9177338  61.0927366 102.8615682  26.4921090  60.8702547 102.1288875
  26.5048321  61.1616060 103.6144283  34.9756916  66.9801093 103.6680059
  35.4888797  67.6131085 104.1701768  35.6258140  66.3802288 103.3023419
  26.2446926  63.1231827  96.8811567  25.4084238  63.4606513  97.2020842
  26.1051695  62.9880807  95.9438704  28.2200006  57.9668615 101.5890751
  27.5664418  57.6517632 100.9647366  28.1780480  57.3444355 102.3150574
  29.3311211  68.2487910  93.5044044  28.4238273  68.0177163  93.7035192
  29.8282243  67.4525529  93.6918025  32.2379290  76.9585417  96.4240730
  31.5640989  77.2617114  97.0325688  32.6245112  77.7614497  96.0746187
  31.4537747  64.4550548 105.9138399  30.5360308  64.6765495 105.7560087
  31.8697890  64.5296859 105.0550106  32.2372794  65.8541964 101.0441079
  32.9844613  66.3663361 100.7348201  32.5064384  65.5326017 101.9045473
  30.5099444  68.3500505  98.0268034  29.6010664  68.0659538  98.1240503
  30.5394528  68.7699583  97.1671340  35.7418712  71.9607094 101.7959201
  35.2881039  71.1198004 101.8524392  35.1112679  72.5968493 102.1333981
  34.6851631  62.8899080 103.0259869  33.9474388  62.3776466 103.3570111
  34.9378405  62.4499462 102.2143145  34.1851651  73.7983591 102.7309019
  34.4774625  74.3588648 102.0121385  34.6950272  74.0912152 103.4862178
  34.7863259  55.6675332 103.6201638  35.0922136  54.8072696 103.3327553
  35.5115864  56.2592952 103.4200632  29.0584338  65.9629125 104.1277829
  29.1132948  65.0102962 104.0520306  28.2475541  66.1188564 104.6119127
  30.2075532  69.8909248  95.3656112  29.7694962  69.1745107  94.9061750
  30.9485973  70.1185363  94.8041204  26.9976698  64.5806185 101.8868208
  26.1844564  64.8800356 102.2933400  27.4935693  64.1861874 102.6042690
  29.1485276  74.5763942 103.8202473  29.1061455  74.8024788 102.8911005
  30.0647975  74.3427317 103.9688274  32.5950910  65.0448010 110.7183102
  32.9500298  65.2719483 111.5777567  33.2423041  65.3766386 110.0960357
  38.3248647  68.1666445 101.4232431  38.1866546  68.3568041 100.4953620
  37.9684866  68.9285828 101.8800482  26.4890773  62.1524541 107.5029443
  27.1290152  62.0113300 106.8052406  25.6568304  61.8659054 107.1268045
  38.3518027  70.2342972 106.4343702  38.7854533  70.1418262 107.2826756
  39.0649607  70.2100473 105.7963718  27.2651077  71.4526971 103.6164435
  28.0591676  70.9577291 103.4147010  26.5542769  70.9244834 103.2532141
  23.5733841  65.5970053  99.6924188  22.6431429  65.5354508  99.9094150
  23.6691313  65.0746006  98.8960829  23.4919390  62.1224866 102.2802430
  23.7526207  63.0370199 102.1711590  24.3136562  61.6549308 102.4299042
  39.2133576  70.2766673 108.9676588  39.4069466  71.1812484 109.2135863
  39.1134194  69.8174092 109.8015173  31.0434021  68.0005329 109.5263735
  31.9726081  68.1516488 109.3532702  30.6225051  68.0889349 108.6712381
  30.4370505  77.1265089  98.6387809  30.6122261  76.6553133  99.4533432
  29.7503293  77.7530856  98.8669070  31.3927568  71.4037596 104.6851110
  31.0577401  71.3638366 105.5808760  30.8931514  70.7382312 104.2121520
  34.3286760  68.7493630  94.9588170  33.7115931  68.0240458  94.8621222
  33.8603248  69.5102990  94.6155244  26.1185306  62.9679054  94.0809474
  25.2414772  62.8467855  93.7171721  26.5943059  62.1765133  93.8288363
  29.3049232  75.3205345 101.3271995  28.5216754  75.8627025 101.4210219
  30.0041977  75.8379324 101.7266236  32.6145882  61.1299974 103.9706200
  33.1114581  60.3769937 103.6507270  31.8432863  61.1664291 103.4049409
  40.4675639  66.8340340 105.6124491  40.4565516  67.7165055 105.2418425
  39.5993019  66.4811891 105.4179029  33.6975663  69.8871661 101.5444623
  32.7631941  70.0073124 101.3749328  33.8752331  68.9844128 101.2804633
  29.1980851  63.2717357 103.6977885  28.8278638  62.7188398 104.3858790
  29.6939943  62.6675491 103.1452885  37.0848214  65.7288981 102.0794657
  37.5508666  66.5616972 102.0054960  37.5355714  65.2633962 102.7839916
  35.1524445  72.0732802  99.0780810  35.4284289  71.9589397  99.9874684
  34.2828944  71.6750287  99.0392983  35.0564877  58.0969568 106.1185559
  34.1427957  58.3273795 106.2867766  35.4857978  58.1808012 106.9699591
  34.8271335  66.2859460 108.6185453  34.1742785  66.5335367 107.9637906
  35.2051715  65.4723598 108.2847930  31.7878509  76.3219153 102.7213623
  31.9700904  75.5040809 103.1841375  32.6111495  76.5386845 102.2838513
  32.1220675  75.2487338  99.9828672  32.6508441  74.7379793  99.3698834
  32.3848894  74.9329868 100.8474205  20.8464000  64.5620910  99.5222380
  21.1417441  63.6531588  99.4689433  19.9452035  64.5408649  99.2003382
  32.7550078  76.2828174 106.3272788  32.6301218  75.4817914 105.8183734
  33.4129170  76.7774367 105.8386758  24.3758247  62.6376906 105.5049928
  23.6544832  63.2512874 105.3657402  25.1651502  63.1734671 105.4266574
  34.8184987  74.0837194 107.9552338  33.8715322  73.9642545 107.8830665
  35.1667760  73.1959692 108.0378600  22.5751841  62.2435007  99.6461705
  22.2464547  61.3632386  99.4636811  22.9291212  62.1882676 100.5338094
  31.8231420  73.8789910 104.1556690  31.6756383  72.9506617 104.3364260
  32.6484914  73.9010001 103.6713766  25.6893664  62.5307977 100.0137183
  26.0289737  63.0593898  99.2915791  26.1365785  62.8688383 100.7895749
  35.4265542  74.7018469 105.2421563  36.3512089  74.4961330 105.1046014
  35.2580845  74.4534870 106.1510905  28.3837105  60.9145028 109.4640251
  28.0433926  60.1152841 109.8660930  27.6776111  61.2146739 108.8917084
  29.0353577  57.9994340 107.9167574  29.8579646  57.5254818 107.7946464
  29.2791641  58.7784824 108.4166260  27.6761812  61.0282599  98.2130475
  28.3970174  61.4063851  97.7094192  27.0527116  61.7471475  98.3165453
  31.8192934  61.7327748  99.1488808  32.0356549  62.6152385  98.8477636
  31.3387002  61.3413961  98.4194450  26.5592156  64.6913461 105.7259552
  26.4136736  65.0053764 106.6183834  26.0817359  65.3098361 105.1730451
  28.4188539  61.6816009 105.7740442  28.4050107  60.7857102 105.4372740
  29.1360967  61.6886673 106.4078728  30.2714669  62.1153349 107.8193569
  30.0132447  63.0370420 107.8177900  29.7399710  61.7183784 108.5094033
  35.2160858  75.2204136 100.5983655  35.3897736  74.6550559  99.8457507
  35.7089749  76.0205031 100.4163145  27.8225435  60.5630389 101.0428012
  27.9441346  59.6347035 101.2418899  27.5327477  60.5769075 100.1306327
  30.6916625  58.2485300 104.1794732  30.7138322  58.3124633 103.2246711
  31.1084684  57.4089808 104.3735238  41.0700249  67.9840559 102.2173954
  41.5131395  67.2347884 101.8193078  40.1926760  67.9750695 101.8347686
  36.2036031  74.5370901  97.6980553  36.8986935  75.1577593  97.9167868
  36.5459181  73.6866252  97.9732931  38.1027454  71.9870606  99.2267884
  38.6278778  72.3257879  98.5017204  38.0149806  71.0517621  99.0431018
  26.7955494  72.1484522  99.1343899  26.9443614  72.8319986  98.4810572
  27.6021937  72.1289612  99.6493355  35.2022997  65.4526904 113.1611117
  36.1032860  65.3133369 112.8695115  35.2770972  65.6181359 114.1009294
  40.6133114  69.4545797 104.6096402  41.4480005  69.8935601 104.7733962
  40.7492243  68.9784451 103.7904648  37.6624620  67.0125532 110.5573890
  38.1378742  67.2053179 109.7492741  36.7390185  67.0684718 110.3117273
  24.5508127  68.1749699 100.1404968  24.3054168  67.2712029 100.3385178
  24.7204041  68.1766850  99.1984446  32.2404836  59.0473376 109.5229724
  32.7586780  59.7834403 109.1976212  31.8859969  59.3537369 110.3576483
  23.8203774  63.9078057  97.6391129  23.1273019  63.9822412  96.9831165
  23.5755526  63.1438401  98.1612646  32.4917431  55.4673658 105.0430620
  32.7719184  54.7996847 105.6691047  33.2768038  55.6602754 104.5305284
  30.2950899  74.6432652  96.6055646  29.7224866  75.2622839  96.1526118
  30.8683693  75.1932014  97.1395568  36.3626289  63.8891292 108.7902195
  37.3143712  63.9889390 108.8114419  36.1929739  63.0969561 109.3000280
  34.3840668  60.9746876 108.9761596  33.7890601  61.2551888 108.2808085
  34.0990365  61.4640776 109.7478337  33.5148159  74.9269802  97.7364229
  34.4478832  74.8615364  97.9397104  33.4271372  75.7626069  97.2778761
  36.1436176  74.2435673  94.6968176  36.0649807  73.9095536  95.5903934
  36.9645842  74.7357441  94.6959649  38.8414367  67.1097412 107.9044495
  38.8090687  66.1713413 108.0904179  39.4514990  67.1881449 107.1710320
  30.6797698  65.9793465  93.9471699  31.6256802  65.8499673  94.0160117
  30.3011943  65.2408127  94.4241127  38.9908855  63.9008455 107.9502778
  38.4747904  63.1166912 107.7632707  39.8748804  63.5727172 108.1149298
  36.6519582  57.6449471 103.9098591  36.4544403  57.3364559 104.7941923
  37.2619288  58.3711110 104.0396521  44.6590917  68.1713419 107.0450532
  45.3894305  67.9098707 107.6058235  44.0497862  67.4342141 107.0852600
  42.7406214  66.3121281 107.6424983  42.0139377  66.1777246 107.0341475
  42.3253501  66.6198110 108.4481701  28.8640615  63.9043441  93.8826584
  27.9572070  63.6076554  93.9589298  29.1416596  63.6073259  93.0160870
  30.4802680  58.4480331 100.0370826  29.6703409  58.1027416 100.4126072
  31.1687097  58.1387875 100.6258437  32.4093229  57.5258378 101.6595122
  32.9624267  57.9453831 102.3185145  32.6463315  56.5994126 101.7018078
  27.6339399  60.7630377  94.0238563  28.4958563  61.0885275  94.2834381
  27.8189744  59.9761872  93.5111629  35.7872036  59.6358903 101.1673786
  35.2070705  60.2943707 100.7851839  35.5207969  58.8136248 100.7561204
  34.2375602  59.0363961 103.3695107  34.7375381  59.1480495 102.5609426
  34.8811210  58.7325014 104.0095915  34.5696914  61.7958993 100.2230135
  33.6822769  62.0808644 100.0050329  34.9850903  61.6352757  99.3757412
  37.9211450  61.8205514 103.9384474  38.6971840  62.3101967 104.2109091
  37.1959584  62.2463569 104.3956343  40.3584009  62.5333134 104.9958415
  40.9528499  62.2928870 104.2851723  40.4310592  61.8140264 105.6231951
  33.7140127  71.5603668  94.3178155  34.4175977  71.7653671  94.9335810
  32.9902776  72.1280430  94.5827238  34.5437938  67.3113529 100.4380425
  34.4873139  67.7682081  99.5988057  35.0966280  66.5504214 100.2603268
  38.3542744  63.1003261 101.2630544  38.0979678  62.6999897 102.0938752
  37.7295612  63.8147055 101.1380683  42.6655081  65.8399334 103.7701836
  42.1054639  65.9092524 104.5433398  42.0598585  65.6640319 103.0501332
  35.6226825  71.9986197  96.3676615  36.4572429  71.5667396  96.1854089
  35.4611168  71.8268211  97.2953509  35.2772717  68.5018311  97.7332954
  35.2221521  68.3362582  96.7921398  34.6518772  69.2094344  97.8895144
  28.5868842  58.0026420  97.3118272  28.5747512  58.9468260  97.4686543
  29.4792264  57.8196565  97.0177734  32.4020962  54.5969196 101.5664209
  31.6353358  54.0427683 101.7120892  32.8131667  54.6691065 102.4278361
  36.9187622  84.3218753 102.3890207  36.3552487  84.2308690 101.6206495
  36.8040017  83.5018657 102.8692700  36.4242808  85.0778858  98.0991806
  37.1973684  84.5307845  97.9604682  36.7768207  85.9423107  98.3106268
  38.7609085  81.2371524  95.7310256  39.0134606  80.7153045  94.9693719
  37.8233645  81.0737669  95.8336940  43.9762446  85.6780153  98.2373656
  43.3408279  85.7514779  98.9494561  43.6459852  86.2673751  97.5592736
  38.4805374  83.1399630  97.9334631  38.3641632  82.4644533  98.6015716
  38.5907634  82.6532004  97.1166784  40.8236915  82.6009777 101.6381320
  40.4595122  82.0740398 102.3494242  41.6804031  82.2108246 101.4647806
  40.4642402  77.6299677  96.6342669  40.6316804  78.4979913  97.0013140
  40.2739571  77.7926958  95.7103958  40.4431623  80.0857334  97.6189336
  40.3231248  80.5314385  98.4574816  39.7484211  80.4342652  97.0602874
  46.1416689  80.5578807  98.4469670  47.0534545  80.7906194  98.2717367
  45.6326336  81.1415852  97.8844748  39.2383119  81.4002186  99.9122902
  39.9407163  81.8523230 100.3796828  38.9063748  80.7586005 100.5402795
  34.9323199  80.0230318 102.1723512  34.1354362  80.1349012 102.6907007
  34.7048791  80.3616970 101.3064402  33.9306281  85.7318567 100.5612932
  34.4430802  86.5261817 100.7118497  34.5828994  85.0344857 100.4946533
  43.7919630  81.7282302  97.0256335  43.2766254  82.4986907  97.2644723
  43.5196939  81.0547438  97.6489397  41.3766741  76.5732003 102.0841574
  40.5208338  76.1838853 101.9047212  41.7893693  76.6523963 101.2241359
  39.1508774  74.1917076 105.4899315  40.0161771  73.9959884 105.1305205
  39.2186283  73.9627427 106.4168672  43.5805933  79.6009394  98.8516117
  43.2756069  79.9155543  99.7026260  44.5336376  79.6790814  98.8943449
  36.7571093  76.4219284 102.8615682  37.3314845  76.1994465 102.1288875
  37.3442075  76.4907978 103.6144283  37.0840680  78.4523745  96.8811567
  36.2477992  78.7898431  97.2020842  36.9445450  78.3172724  95.9438704
  39.0593761  73.2960532 101.5890751  38.4058173  72.9809550 100.9647366
  39.0174235  72.6736273 102.3150574  40.1704966  83.5779828  93.5044044
  39.2632027  83.3469081  93.7035192  40.6675997  82.7817447  93.6918025
  43.0766549  81.1833882 101.0441079  43.8238368  81.6955279 100.7348201
  43.3458138  80.8617934 101.9045473  41.3493199  83.6792422  98.0268034
  40.4404418  83.3951455  98.1240503  41.3788283  84.0991501  97.1671340
  45.6257013  70.9967250 103.6201638  45.9315890  70.1364613 103.3327553
  46.3509618  71.5884870 103.4200632  41.0469287  85.2201166  95.3656112
  40.6088717  84.5037025  94.9061750  41.7879728  85.4477281  94.8041204
  37.8370453  79.9098103 101.8868208  37.0238318  80.2092273 102.2933400
  38.3329447  79.5153792 102.6042690  34.4127595  80.9261970  99.6924188
  33.4825183  80.8646426  99.9094150  34.5085067  80.4037923  98.8960829
  34.3313144  77.4516783 102.2802430  34.5919961  78.3662117 102.1711590
  35.1530316  76.9841226 102.4299042  45.1680514  84.0785548  94.9588170
  44.5509685  83.3532376  94.8621222  44.6997003  84.8394908  94.6155244
  36.9579060  78.2970972  94.0809474  36.0808527  78.1759773  93.7171721
  37.4336813  77.5057050  93.8288363  43.4539636  76.4591892 103.9706200
  43.9508336  75.7061854 103.6507270  42.6826618  76.4956209 103.4049409
  40.0374605  78.6009275 103.6977885  39.6672393  78.0480315 104.3858790
  40.5333698  77.9967408 103.1452885  31.6857754  79.8912827  99.5222380
  31.9811195  78.9823506  99.4689433  30.7845790  79.8700567  99.2003382
  35.2152001  77.9668824 105.5049928  34.4938587  78.5804792 105.3657402
  36.0045257  78.5026589 105.4266574  33.4145596  77.5726925  99.6461705
  33.0858302  76.6924304  99.4636811  33.7684966  77.5174594 100.5338094
  36.5287419  77.8599895 100.0137183  36.8683491  78.3885816  99.2915791
  36.9759539  78.1980301 100.7895749  38.5155566  76.3574516  98.2130475
  39.2363928  76.7355769  97.7094192  37.8920870  77.0763393  98.3165453
  42.6586689  77.0619665  99.1488808  42.8750303  77.9444303  98.8477636
  42.1780756  76.6705879  98.4194450  38.6619189  75.8922307 101.0428012
  38.7835100  74.9638953 101.2418899  38.3721231  75.9060993 100.1306327
  41.5310379  73.5777217 104.1794732  41.5532076  73.6416550 103.2246711
  41.9478438  72.7381726 104.3735238  37.6349248  87.4776439  99.1343899
  37.7837368  88.1611904  98.4810572  38.4415691  87.4581530  99.6493355
  35.3901881  83.5041617 100.1404968  35.1447923  82.6003947 100.3385178
  35.5597796  83.5058768  99.1984446  34.6597529  79.2369975  97.6391129
  33.9666773  79.3114330  96.9831165  34.4149280  78.4730318  98.1612646
  43.3311185  70.7965576 105.0430620  43.6112939  70.1288765 105.6691047
  44.1161792  70.9894672 104.5305284  41.1344654  89.9724570  96.6055646
  40.5618621  90.5914757  96.1526118  41.7077447  90.5223932  97.1395568
  46.9829930  89.5727590  94.6968176  46.9043562  89.2387454  95.5903934
  47.8039597  90.0649358  94.6959649  41.5191452  81.3085383  93.9471699
  42.4650557  81.1791591  94.0160117  41.1405697  80.5700045  94.4241127
  47.4913337  72.9741389 103.9098591  47.2938158  72.6656477 104.7941923
  48.1013042  73.7003028 104.0396521  39.7034369  79.2335359  93.8826584
  38.7965825  78.9368472  93.9589298  39.9810350  78.9365177  93.0160870
  41.3196435  73.7772249 100.0370826  40.5097163  73.4319334 100.4126072
  42.0080852  73.4679793 100.6258437  43.2486983  72.8550296 101.6595122
  43.8018022  73.2745749 102.3185145  43.4857070  71.9286044 101.7018078
  38.4733154  76.0922294  94.0238563  39.3352318  76.4177193  94.2834381
  38.6583498  75.3053790  93.5111629  46.6265790  74.9650821 101.1673786
  46.0464459  75.6235625 100.7851839  46.3601723  74.1428165 100.7561204
  45.0769357  74.3655878 103.3695107  45.5769135  74.4772413 102.5609426
  45.7204965  74.0616931 104.0095915  45.4090668  77.1250911 100.2230135
  44.5216523  77.4100562 100.0050329  45.8244657  76.9644674  99.3757412
  44.5533882  86.8895586  94.3178155  45.2569732  87.0945588  94.9335810
  43.8296531  87.4572348  94.5827238  46.1166471  83.8310228  97.7332954
  46.0615275  83.6654500  96.7921398  45.4912527  84.5386261  97.8895144
  39.4262597  73.3318337  97.3118272  39.4141267  74.2760177  97.4686543
  40.3186019  73.1488483  97.0177734  43.2414716  69.9261114 101.5664209
  42.4747112  69.3719601 101.7120892  43.6525421  69.9982983 102.4278361
  20.8199673  34.3368008  84.4249979  20.1687653  34.9222088  84.0383992
  21.6144036  34.8674203  84.4845016  14.7455300  31.4257145  84.8237113
  15.5186176  30.8786132  84.6849989  15.0980699  32.2901394  85.0351574
  17.0821578  27.5849811  82.4555563  17.3347098  27.0631332  81.6939026
  16.1446137  27.4215957  82.5582246  22.2974938  32.0258440  84.9618963
  21.6620771  32.0993066  85.6739868  21.9672344  32.6152039  84.2838042
  16.8017866  29.4877917  84.6579938  16.6854125  28.8122820  85.3261022
  16.9120126  29.0010291  83.8412091  18.7854894  23.9777964  83.3587976
  18.9529297  24.8458200  83.7258447  18.5952063  24.1405246  82.4349265
  18.7644115  26.4335621  84.3434642  18.6443740  26.8792672  85.1820123
  18.0696704  26.7820939  83.7848181  16.5251007  39.2039263  87.9924774
  16.4475037  40.1547088  88.0713254  15.9212651  38.8585136  88.6499700
  24.4629181  26.9057095  85.1714976  25.3747038  27.1384481  84.9962674
  23.9538829  27.4894139  84.6090055  26.9487996  32.8237351  89.9172922
  26.2639034  33.2036252  89.3669955  27.0331845  33.4332678  90.6504869
  33.4090748  29.6908014  91.0375594  32.6554457  29.1215412  90.8819598
  33.5438289  29.6570678  91.9846229  18.7989376  34.5621416  86.7130313
  18.6635051  35.4072952  87.1415161  19.3399189  34.7640694  85.9496247
  12.2518774  32.0796854  87.2858238  12.7643294  32.8740104  87.4363803
  12.9041487  31.3823145  87.2191840  14.0613658  35.1962610  89.3680992
  14.2380287  36.1180575  89.1801976  14.8570492  34.8821030  89.7975371
  22.1132123  28.0760589  83.7501642  21.5978746  28.8465194  83.9890029
  21.8409431  27.4025725  84.3734703  27.0866397  30.8292944  85.6854815
  26.3095839  30.4904103  85.2409978  27.7657878  30.8345567  85.0109780
  21.9018426  25.9487681  85.5761423  21.5968561  26.2633830  86.4271566
  22.8548868  26.0269101  85.6188756  20.3464858  32.1077905  87.2254377
  19.8186219  31.3730664  86.9127615  19.8452360  32.8852581  86.9794345
  15.4053172  24.8002032  83.6056874  14.5690485  25.1376718  83.9266149
  15.2657942  24.6651012  82.6684011  18.4917458  29.9258115  80.2289350
  17.5844520  29.6947368  80.4280499  18.9888490  29.1295734  80.4163332
  21.3985537  38.6355622  83.1486036  20.7247235  38.9387319  83.7570994
  21.7851359  39.4384702  82.7991493  19.6705691  30.0270710  84.7513340
  18.7616910  29.7429742  84.8485810  19.7000775  30.4469788  83.8916647
  24.9024959  33.6377299  88.5204508  24.4487286  32.7968209  88.5769698
  24.2718925  34.2738698  88.8579288  23.3457898  35.4753796  89.4554326
  23.6380872  36.0358853  88.7366692  23.8556518  35.7682357  90.2107485
  19.3681779  31.5679453  82.0901419  18.9301209  30.8515312  81.6307056
  20.1092220  31.7955568  81.5286510  18.3091523  36.2534147  90.5447779
  18.2667702  36.4794993  89.6156311  19.2254222  36.0197522  90.6933580
  27.4854894  29.8436650  88.1477737  27.3472792  30.0338246  87.2198927
  27.1291113  30.6056033  88.6045789  19.5976752  38.8035294  85.3633116
  19.7728508  38.3323338  86.1778738  18.9109540  39.4301061  85.5914376
  23.4893007  30.4263835  81.6833476  22.8722177  29.7010663  81.5866529
  23.0209495  31.1873195  81.3400551  14.1637837  41.9524657  92.1372976
  14.4034435  42.5843181  92.8151994  13.3207034  41.6012697  92.4238335
  15.2791553  24.6449259  80.8054781  14.4021019  24.5238060  80.4417027
  15.7549306  23.8535338  80.5533669  18.4655479  36.9975550  88.0517301
  17.6823000  37.5397230  88.1455526  19.1648224  37.5149529  88.4511542
  22.8581909  31.5641866  88.2689930  21.9238188  31.6843329  88.0994634
  23.0358578  30.6614333  88.0049940  26.2454461  27.4059186  88.8039964
  26.7114913  28.2387177  88.7300267  26.6961961  26.9404167  89.5085223
  24.3130692  33.7503007  85.8026116  24.5890536  33.6359601  86.7119990
  23.4435191  33.3520492  85.7638289  20.9484756  37.9989358  89.4458930
  21.1307150  37.1811014  89.9086682  21.7717742  38.2157050  89.0083820
  21.2826921  36.9257543  86.7073978  21.8114688  36.4149997  86.0944140
  21.5455141  36.6100073  87.5719511  14.6382669  37.9772660  89.4671754
  13.9693045  38.4618787  88.9835794  14.4995539  38.2241880  90.3815133
  21.9156325  37.9598379  93.0518095  21.7907465  37.1588118  92.5429040
  22.5735416  38.4544572  92.5632065  20.9837667  35.5560115  90.8801997
  20.8362629  34.6276822  91.0609567  21.8091160  35.5780206  90.3959072
  24.5871789  36.3788674  91.9666870  25.5118336  36.1731535  91.8291321
  24.4187092  36.1305075  92.8756211  20.9799181  23.4097953  85.8734114
  21.1962796  24.2922590  85.5722942  20.4993248  23.0184166  85.1439756
  24.3767105  36.8974341  87.3228961  24.5503982  36.3320764  86.5702814
  24.8695996  37.6975236  87.1408451  30.2306496  29.6610764  88.9419261
  30.6737642  28.9118089  88.5438384  29.3533006  29.6520900  88.5592993
  25.3642277  36.2141105  84.4225860  26.0593182  36.8347798  84.6413174
  25.7065428  35.3636457  84.6978237  27.2633701  33.6640811  85.9513190
  27.7885025  34.0028084  85.2262510  27.1756053  32.7287826  85.7676325
  18.9474361  39.7312794  90.3108443  18.5079352  39.2389173  91.0041300
  19.6982478  39.1885762  90.0700519  15.9561740  33.8254727  85.8589206
  16.1049861  34.5090191  85.2055878  16.7628184  33.8059817  86.3738661
  29.7739361  31.1316002  91.3341709  30.6086252  31.5705806  91.4979269
  29.9098490  30.6554656  90.5149954  19.4557146  36.3202857  83.3300953
  18.8831113  36.9393044  82.8771425  20.0289940  36.8702219  83.8640875
  22.6754406  36.6040007  84.4609535  23.6085079  36.5385569  84.6642411
  22.5877618  37.4396274  84.0024068  25.3042422  35.9205878  81.4213483
  25.2256054  35.5865741  82.3149241  26.1252089  36.4127646  81.4204955
  19.8403944  27.6563670  80.6717006  20.7863049  27.5269878  80.7405424
  19.4618189  26.9178332  81.1486434  33.8197163  29.8483624  93.7695838
  34.5500552  29.5868912  94.3303542  33.2104109  29.1112346  93.8097906
  18.0246861  25.5813646  80.6071891  17.1178317  25.2846759  80.6834604
  18.3022843  25.2843464  79.7406177  16.7945646  22.4400582  80.7483870
  17.6564810  22.7655480  81.0079687  16.9795990  21.6532077  80.2356936
  23.7303161  23.4729198  86.9475441  22.8429016  23.7578849  86.7295636
  24.1457150  23.3122962  86.1002718  22.8746374  33.2373873  81.0423461
  23.5782224  33.4423876  81.6581117  22.1509023  33.8050635  81.3072545
  23.7044184  28.9883734  87.1625731  23.6479386  29.4452286  86.3233364
  24.2572527  28.2274419  86.9848574  27.5148990  24.7773466  87.9875851
  27.2585925  24.3770102  88.8184059  26.8901858  25.4917260  87.8625990
  31.8261328  27.5169539  90.4947142  31.2660886  27.5862729  91.2678704
  31.2204831  27.3410524  89.7746639  24.7833071  33.6756402  83.0921921
  25.6178675  33.2437601  82.9099396  24.6217414  33.5038416  84.0198816
  24.4378964  30.1788516  84.4578261  24.3827767  30.0132787  83.5166705
  23.8125019  30.8864548  84.6140450  17.6764653  38.3565515  92.1231336
  16.7260284  38.3567377  92.0095708  17.9797139  37.6098250  91.6067370
  33.4117347  44.1926053  93.1877098  34.0495757  44.0732801  92.4840438
  33.2938189  45.1406897  93.2465050  30.2207053  44.1453481  93.1238623
  29.8825564  44.0294546  92.2359158  31.0896821  43.7444647  93.1039629
  26.0793869  45.9988958  89.1135514  25.5158734  45.9078895  88.3451801
  25.9646264  45.1788862  89.5938006  30.7026836  45.2988333  99.0824828
  30.6915477  44.9041131  98.2105332  30.8647475  44.5654406  99.6758600
  23.6258300  47.4940149  91.9519734  24.4179592  47.1530974  91.5366033
  23.8654951  47.6035125  92.8721887  25.5849054  46.7549063  84.8237113
  26.3579930  46.2078050  84.6849989  25.9374453  47.6193312  85.0351574
  27.4234097  48.0825445  98.0304012  27.1323963  48.9871076  97.9150679
  28.0591081  48.1241973  98.7448082  28.3490304  45.4602294  94.6205372
  28.9453876  45.2358316  93.9062335  28.4065275  44.7187039  95.2230820
  27.9215332  42.9141729  82.4555563  28.1740853  42.3923250  81.6939026
  26.9839891  42.7507874  82.5582246  32.9658615  41.9177507  90.2630306
  33.7521704  41.4996930  89.9120723  33.2297319  42.8223599  90.4311955
  38.3667042  41.8552740  91.1663285  39.0992214  41.2851957  91.4001114
  37.6106398  41.4674341  91.6069790  27.6411621  44.8169835  84.6579938
  27.5247879  44.1414738  85.3261022  27.7513881  44.3302209  83.8412091
  29.9843162  44.2779982  88.3626627  29.6201369  43.7510603  89.0739549
  30.8410278  43.8878451  88.1893112  35.8892463  35.5674315  95.6257893
  35.5575787  36.4369725  95.4019108  35.2938076  35.2510599  96.3051924
  29.6248649  39.3069882  83.3587976  29.7923051  40.1750118  83.7258447
  29.4345818  39.4697163  82.4349265  32.3823982  47.7686860  95.0253806
  32.0824705  48.6711899  94.9169613  32.0375042  47.5019044  95.8774959
  25.8336464  44.2200657  91.0590510  24.9086960  44.0876871  91.2668202
  26.0820877  44.9994877  91.5560453  35.7821126  40.2869401  92.7051243
  34.8738003  40.2184809  92.4110004  35.7308722  40.7641346  93.5333069
  29.6037870  41.7627539  84.3434642  29.4837495  42.2084590  85.1820123
  28.9090458  42.1112857  83.7848181  23.1945275  43.8633931  91.8934299
  23.3237656  44.1168410  92.8073711  22.5142726  44.4561639  91.5738955
  27.3644762  54.5331181  87.9924774  27.2868792  55.4839006  88.0713254
  26.7606405  54.1877053  88.6499700  37.6482772  38.4885839  94.4829117
  37.0057153  38.7818372  93.8368912  37.1437701  38.3738759  95.2882314
  35.3022936  42.2349012  85.1714976  36.2140792  42.4676399  84.9962674
  34.7932583  42.8186056  84.6090055  28.1108364  44.5144500 100.2104108
  28.8523048  45.0529544  99.9338931  27.4045349  45.1410788 100.3675659
  33.5863704  46.6573640  98.8076269  33.9947060  46.2156051  98.0630901
  32.8640965  46.0826268  99.0610462  29.9394774  41.5946247  96.1809826
  30.7855969  42.0185660  96.3244475  29.8793411  40.9379871  96.8748389
  33.9092518  47.2174831  92.5628558  33.2801381  47.3820545  91.8604626
  33.5218180  47.6316440  93.3339522  33.0894219  39.2550615  97.8391000
  32.8455151  40.0092676  97.3025275  33.3654149  39.6335963  98.6738247
  35.0432682  45.7989228  96.5168265  35.2549577  46.4420987  95.8402646
  34.9962430  44.9651544  96.0490195  32.6458911  38.4107048  93.4204837
  31.7843390  38.7088302  93.7121575  32.6721345  38.6277447  92.4885870
  29.4620480  46.9549239  89.8278643  29.9258826  47.2336942  89.0383266
  29.1977278  46.0532683  89.6451734  26.3544561  46.5020720  92.7658406
  26.9245918  46.9307989  92.1275891  26.9452673  46.2203305  93.4642592
  28.3989366  43.0772391  86.6368208  29.1013410  43.5293435  87.1042135
  28.0669995  42.4356210  87.2648101  22.1414700  41.3355944  91.9385342
  21.3513754  41.5913472  91.4625452  22.6325948  42.1504282  92.0437382
  36.1578510  48.6761183  94.6890623  36.9795953  48.2741370  94.4073304
  36.1540913  48.5729417  95.6406738  24.0929446  41.7000523  88.8968818
  23.2960609  41.8119217  89.4152314  23.8655038  42.0387175  88.0309709
  29.9235113  48.2245226  96.8451333  29.9879546  48.6865634  97.6809505
  29.2146037  47.5942591  96.9733643  20.4252403  41.5886434  94.3700333
  20.6760442  42.4733444  94.6357908  20.9611952  41.4091036  93.5975424
  44.2484503  45.0199931  91.0375594  43.4948211  44.4507330  90.8819598
  44.3832044  44.9862596  91.9846229  29.6383131  49.8913334  86.7130313
  29.5028806  50.7364870  87.1415161  30.1792943  50.0932611  85.9496247
  23.0912528  47.4088772  87.2858238  23.6037049  48.2032022  87.4363803
  23.7435241  46.7115062  87.2191840  24.9007413  50.5254528  89.3680992
  25.0774041  51.4472493  89.1801976  25.6964246  50.2112947  89.7975371
  31.2651607  50.5136900 100.8430655  30.8215461  49.7273279 100.5251560
  31.9268821  50.7016051 100.1774546  26.0238728  52.0432702  95.3691334
  26.5746153  51.9149765  94.5968328  25.1850204  52.3427591  95.0186227
  33.3632845  50.7939700  98.8712057  33.3451321  51.6148581  98.3792326
  34.2852765  50.6693775  99.0962198  29.8205899  48.3083830  99.7135565
  30.3534236  47.5472118  99.4834873  29.2919980  48.0157482 100.4559720
  32.9875594  33.4143896  95.2429207  32.6439864  34.3045537  95.1668317
  33.3554557  33.2245553  94.3798792  21.0561445  45.7377426  88.0617809
  21.8936667  46.1474435  87.8451517  21.2339713  44.7976868  88.0318003
  32.9525877  43.4052507  83.7501642  32.4372501  44.1757111  83.9890029
  32.6803186  42.7317643  84.3734703  30.5372988  38.2502208  88.8086880
  29.6814584  37.8609058  88.6292519  30.9499940  38.3294168  87.9486666
  32.0672135  35.7848551  93.2078440  31.5636930  35.7478686  92.3946245
  32.3602742  36.6941294  93.2675097  28.3115021  35.8687281  92.2144622
  29.1768017  35.6730089  91.8550511  28.3792530  35.6397632  93.1413979
  32.7412180  41.2779599  85.5761423  32.4362316  41.5925748  86.4271566
  33.6942622  41.3561019  85.6188756  31.1858612  47.4369822  87.2254377
  30.6579974  46.7022582  86.9127615  30.6846115  48.2144499  86.9794345
  36.1651458  45.6318843  92.3421423  35.5075133  46.3218104  92.4301552
  36.9691857  46.0215275  92.6855410  25.9177340  38.0989488  89.5860989
  26.4921092  37.8764670  88.8534182  26.5048322  38.1678183  90.3389590
  34.9756917  43.9863215  90.3925365  35.4888799  44.6193207  90.8947075
  35.6258141  43.3864411  90.0268725  26.2446927  40.1293950  83.6056874
  25.4084239  40.4668636  83.9266149  26.1051696  39.9942929  82.6684011
  28.2200007  34.9730737  88.3136058  27.5664420  34.6579755  87.6892673
  28.1780482  34.3506478  89.0395881  29.3311212  45.2550032  80.2289350
  28.4238274  45.0239286  80.4280499  29.8282244  44.4587652  80.4163332
  31.4537748  41.4612671  92.6383706  30.5360309  41.6827618  92.4805394
  31.8697891  41.5358981  91.7795413  32.2372796  42.8604087  87.7686386
  32.9844614  43.3725484  87.4593508  32.5064385  42.5388139  88.6290780
  30.5099446  45.3562627  84.7513340  29.6010665  45.0721660  84.8485810
  30.5394530  45.7761706  83.8916647  34.6851633  39.8961203  89.7505175
  33.9474389  39.3838589  90.0815418  34.9378406  39.4561584  88.9388452
  34.1851652  50.8045714  89.4554326  34.4774627  51.3650771  88.7366692
  34.6950273  51.0974275  90.2107485  34.7863260  32.6737455  90.3446945
  35.0922137  31.8134818  90.0572860  35.5115865  33.2655075  90.1445938
  21.0787616  43.0768141  88.7328542  20.8812016  42.4837502  88.0079609
  20.5234280  42.7720352  89.4504481  29.0584340  42.9691248  90.8523136
  29.1132950  42.0165084  90.7765612  28.2475542  43.1250687  91.3364434
  26.9976700  41.5868308  88.6113514  26.1844565  41.8862478  89.0178707
  27.4935694  41.1923996  89.3287997  29.1485278  51.5826065  90.5447779
  29.1061456  51.8086911  89.6156311  30.0647976  51.3489439  90.6933580
  32.5950911  42.0510132  97.4428408  32.9500299  42.2781605  98.3022874
  33.2423043  42.3828509  96.8205664  26.4890774  39.1586663  94.2274749
  27.1290154  39.0175422  93.5297713  25.6568305  38.8721177  93.8513351
  38.3518028  47.2405095  93.1589009  38.7854535  47.1480384  94.0072063
  39.0649609  47.2162596  92.5209025  27.2651078  48.4589094  90.3409742
  28.0591677  47.9639414  90.1392317  26.5542771  47.9306957  89.9777447
  32.0845923  50.8407189  94.6922109  32.1382945  51.4098125  95.4599825
  31.2160704  51.0109074  94.3276147  23.5733842  42.6032175  86.4169495
  22.6431430  42.5416631  86.6339457  23.6691314  42.0808128  85.6206136
  23.4919391  39.1286988  89.0047736  23.7526208  40.0432321  88.8956897
  24.3136563  38.6611431  89.1544349  24.9644316  40.5424745  96.1746561
  25.6367370  40.3342107  95.5259210  24.1374103  40.3446831  95.7351793
  39.2133577  47.2828796  95.6921894  39.4069468  48.1874606  95.9381169
  39.1134196  46.8236215  96.5260479  34.2748686  47.4335538 101.2662775
  34.1234193  47.2046090 100.3492859  34.2653366  48.3906140 101.2794120
  31.0434023  45.0067451  96.2509041  31.9726083  45.1578611  96.0778009
  30.6225053  45.0951472  95.3957688  29.8422354  49.0318116  94.0207579
  29.7033440  48.6636900  94.8933517  29.0536951  49.5465755  93.8491537
  31.3927569  48.4099718  91.4096417  31.0577402  48.3700488  92.3054067
  30.8931515  47.7444434  90.9366827  25.3671813  43.8167348  96.9348998
  25.2291611  43.0847587  97.5360537  26.2776737  43.7276248  96.6533186
  27.9954114  43.5287308  96.4232678  28.7053733  42.8880500  96.3819296
  27.9523422  43.7800203  97.3458858  35.9840893  50.4654661  99.3439257
  35.9253439  49.7813881  98.6769840  36.3860411  51.2073651  98.8919883
  25.0031592  57.2816575  92.1372976  25.2428190  57.9135099  92.8151994
  24.1600788  56.9304615  92.4238335  26.1185307  39.9741177  80.8054781
  25.2414773  39.8529978  80.4417027  26.5943060  39.1827255  80.5533669
  35.9858300  48.4294245  97.5753236  35.0985079  48.0920167  97.6979635
  36.5556851  47.6977276  97.8122002  17.6387447  44.7618337  90.8996288
  18.3258487  44.4480067  90.3117303  17.4835576  45.6659701  90.6263539
  22.4422169  39.6508533  95.3281312  22.3580358  39.0434203  94.5931721
  21.6204876  40.1417552  95.3290808  29.5159453  53.0895697  94.5414480
  29.4429625  53.8950669  95.0533784  29.0736847  53.2887663  93.7162501
  29.3049233  52.3267467  88.0517301  28.5216755  52.8689147  88.1455526
  30.0041978  52.8441447  88.4511542  32.6145883  38.1362097  90.6951507
  33.1114583  37.3832059  90.3752577  31.8432865  38.1726413  90.1294716
  40.4675641  43.8402462  92.3369798  40.4565517  44.7227178  91.9663731
  39.5993020  43.4874013  92.1424335  31.9758137  52.9882531  96.6972638
  32.6886109  53.6229996  96.6248540  31.4848166  53.0846397  95.8812640
  33.6975664  46.8933784  88.2689930  32.7631943  47.0135246  88.0994634
  33.8752332  45.9906251  88.0049940  29.1980852  40.2779480  90.4223191
  28.8278639  39.7250520  91.1104097  29.6939944  39.6737613  89.8698191
  27.0270051  50.7376975  97.5178209  27.7279510  51.3713458  97.6707603
  26.5565166  51.0791706  96.7573848  35.0564878  35.1031690  92.8430865
  34.1427958  35.3335917  93.0113072  35.4857979  35.1870134  93.6944898
  34.8271336  43.2921582  95.3430759  34.1742787  43.5397490  94.6883212
  35.2051716  42.4785720  95.0093237  31.7878510  53.3281275  89.4458930
  31.9700905  52.5102931  89.9086682  32.6111496  53.5448968  89.0083820
  32.1220676  52.2549461  86.7073978  32.6508442  51.7441915  86.0944140
  32.3848895  51.9391991  87.5719511  22.6237769  50.2713330  94.4509312
  23.2091205  49.5257018  94.5837216  22.4262607  50.5817287  95.3345976
  25.4776424  53.3064577  89.4671754  24.8086799  53.7910705  88.9835794
  25.3389293  53.5533798  90.3815133  17.2155423  42.8418930  93.1713755
  17.2539523  42.3082521  93.9650873  16.7095716  42.3154136  92.5524732
  29.6181692  55.3408321  96.0654413  30.1700000  55.5039942  96.8303498
  29.9587886  55.9312759  95.3934437  34.4692567  50.1669578 101.9203067
  35.0132471  50.7799537 101.4258022  33.8879412  50.7249157 102.4370080
  20.8464001  41.5683032  86.2467686  21.1417442  40.6593711  86.1934740
  19.9452037  41.5470772  85.9248689  32.7550080  53.2890296  93.0518095
  32.6301219  52.4880036  92.5429040  33.4129171  53.7836490  92.5632065
  24.3758248  39.6439029  92.2295235  23.6544834  40.2574996  92.0902708
  25.1651504  40.1796794  92.1511881  34.8184988  51.0899316  94.6797645
  33.8715324  50.9704668  94.6075972  35.1667761  50.2021814  94.7623906
  22.5751842  39.2497130  86.3707012  22.2464549  38.3694509  86.1882117
  22.9291213  39.1944799  87.2583401  31.8231421  50.8852033  90.8801997
  31.6756384  49.9568740  91.0609567  32.6484915  50.9072123  90.3959072
  25.6893666  39.5370100  86.7382489  26.0289738  40.0656021  86.0161098
  26.1365786  39.8750506  87.5141056  35.4265543  51.7080591  91.9666870
  36.3512091  51.5023453  91.8291321  35.2580847  51.4596992  92.8756211
  28.3837106  37.9207150  96.1885557  28.0433927  37.1214963  96.5906237
  27.6776113  38.2208861  95.6162390  29.0353578  35.0056463  94.6412880
  29.8579648  34.5316941  94.5191771  29.2791642  35.7846947  95.1411567
  27.6761813  38.0344721  84.9375782  28.3970175  38.4125974  84.4339499
  27.0527117  38.7533598  85.0410760  31.8192936  38.7389870  85.8734114
  32.0356550  39.6214508  85.5722942  31.3387003  38.3476084  85.1439756
  26.5592157  41.6975583  92.4504859  26.4136738  42.0115887  93.3429140
  26.0817361  42.3160484  91.8975758  28.4188540  38.6878131  92.4985748
  28.4050109  37.7919225  92.1618046  29.1360968  38.6948795  93.1324034
  30.2714671  39.1215472  94.5438876  30.0132448  40.0432542  94.5423206
  29.7399711  38.7245906  95.2339340  21.0337819  44.2380928  95.3892520
  20.4891287  45.0140736  95.5212794  21.9117169  44.5851732  95.2311641
  27.8225436  37.5692512  87.7673319  27.9441347  36.6409158  87.9664206
  27.5327478  37.5831198  86.8551634  30.6916626  35.2547422  90.9040038
  30.7138323  35.3186755  89.9492018  31.1084685  34.4151931  91.0980545
  29.7647504  52.9066802  98.0803067  30.0734630  52.6615949  98.9525767
  30.5622986  53.1113441  97.5921937  29.7868116  55.0604712  90.3108443
  29.3473106  54.5681091  91.0041300  30.5376233  54.5177680  90.0700519
  22.2660455  51.2516253  90.3133072  23.0918475  50.9520025  89.9331715
  21.9154507  50.4823875  90.7622860  27.2341988  50.6042721  92.3830745
  26.6121997  49.9413426  92.0832973  27.9046855  50.6303853  91.7004393
  20.4669060  49.1702579  91.2722005  19.6300968  48.7424754  91.0906006
  20.4392705  49.3635023  92.2092796  37.7921361  49.6265632 101.2564388
  37.0016905  49.6089771 100.7168888  37.5554716  50.1653926 102.0113425
  37.9119236  46.4758099  98.5697117  37.9617241  46.3108106  99.5112640
  37.8033159  45.6085358  98.1794998  26.7955495  49.1546644  85.8589206
  26.9443615  49.8382109  85.2055878  27.6021938  49.1351734  86.3738661
  35.2022999  42.4589027  99.8856423  36.1032861  42.3195492  99.5940421
  35.2770973  42.6243482 100.8254601  39.4137433  48.8955040  98.8139138
  39.1222241  49.2585021  99.6502599  38.8009564  48.1822048  98.6352470
  37.6624621  44.0187655  97.2819196  38.1378743  44.2115301  96.4738048
  36.7390187  44.0746841  97.0362580  24.5508128  45.1811822  86.8650275
  24.3054170  44.2774152  87.0630485  24.7204042  45.1828972  85.9229753
  32.2404838  36.0535498  96.2475030  32.7586782  36.7896525  95.9221519
  31.8859970  36.3599492  97.0821789  23.8203775  40.9140180  84.3636436
  23.1273020  40.9884535  83.7076472  23.5755527  40.1500523  84.8857953
  32.4917432  32.4735781  91.7675927  32.7719186  31.8058970  92.3936353
  33.2768039  32.6664877  91.2550591  36.3626290  40.8953415  95.5147502
  37.3143713  40.9951513  95.5359726  36.1929741  40.1031683  96.0245586
  34.3840670  37.9808998  95.7006903  33.7890602  38.2614011  95.0053391
  34.0990366  38.4702899  96.4723644  38.8414368  44.1159535  94.6289802
  38.8090688  43.1775535  94.8149485  39.4514992  44.1943571  93.8955626
  30.6797699  42.9855588  80.6717006  31.6256804  42.8561796  80.7405424
  30.3011944  42.2470249  81.1486434  38.9908856  40.9070578  94.6748085
  38.4747905  40.1229035  94.4878014  39.8748805  40.5789295  94.8394604
  36.6519583  34.6511594  90.6343897  36.4544405  34.3426682  91.5187229
  37.2619289  35.3773233  90.7641827  44.6590918  45.1775541  93.7695838
  45.3894306  44.9160830  94.3303542  44.0497863  44.4404263  93.8097906
  42.7406215  43.3183404  94.3670290  42.0139379  43.1839369  93.7586781
  42.3253502  43.6260233  95.1727008  30.5636391  47.0373334 102.1317663
  31.4839401  47.2151933 102.3257709  30.5285974  46.0929379 101.9797362
  28.8640616  40.9105564  80.6071891  27.9572071  40.6138677  80.6834604
  29.1416597  40.6135382  79.7406177  19.7818556  42.2311927  91.0570937
  19.4621341  41.3777236  90.7645311  19.2351985  42.4460506  91.8128905
  23.5598464  44.9474368  94.7740444  23.7784474  45.8791476  94.7928478
  23.9724238  44.5882343  95.5595248  30.4802682  35.4542454  86.7616132
  29.6703410  35.1089539  87.1371378  31.1687099  35.1449997  87.3503744
  32.4093230  34.5320501  88.3840429  32.9624269  34.9515954  89.0430452
  32.6463316  33.6056249  88.4263385  27.6339401  37.7692499  80.7483870
  28.4958565  38.0947398  81.0079687  27.8189745  36.9823995  80.2356936
  19.6506816  45.8514839  93.0264059  18.9570288  45.4368792  92.5134013
  20.3979807  45.8935375  92.4297478  35.7872037  36.6421026  87.8919093
  35.2070706  37.3005830  87.5097145  35.5207970  35.8198370  87.4806511
  34.2375603  36.0426083  90.0940413  34.7375382  36.1542618  89.2854732
  34.8811211  35.7387136  90.7341222  21.5643559  45.7833093  90.9030074
  21.5414247  45.8820780  89.9511957  21.8744195  46.6298243  91.2247240
  24.2230937  47.8409248  95.0176688  25.1774190  47.8093190  94.9506620
  24.0243460  47.3799871  95.8326914  24.8130319  46.4110364  97.5847486
  25.6323208  46.9054442  97.6082323  25.0867127  45.4942332  97.5565053
  34.5696915  38.8021116  86.9475441  33.6822770  39.0870767  86.7295636
  34.9850904  38.6414879  86.1002718  37.9211451  38.8267637  90.6629781
  38.6971841  39.3164089  90.9354397  37.1959585  39.2525691  91.1201650
  40.3584010  39.5395256  91.7203721  40.9528501  39.2990992  91.0097029
  40.4310594  38.8202387  92.3477257  22.5781166  53.3828867  92.0346886
  22.4435633  52.6229268  91.4684884  22.1613228  54.1069767  91.5675675
  38.3542745  40.1065384  87.9875851  38.0979679  39.7062020  88.8184059
  37.7295613  40.8209178  87.8625990  42.6655083  42.8461457  90.4947142
  42.1054641  42.9154646  91.2678704  42.0598586  42.6702442  89.7746639
  25.7350291  54.2798184  92.2465329  25.6182676  55.2243617  92.1444019
  24.9142738  53.9771746  92.6351128  32.5918625  47.8129345 103.7831823
  33.4609785  47.9869997 103.4218458  32.1125377  48.6323762 103.6607553
  28.5868844  35.0088542  84.0363579  28.5747513  35.9530382  84.1931850
  29.4792265  34.8258688  83.7423040  26.7604806  54.9326446  95.4621257
  27.6632052  54.9650056  95.7787752  26.5342176  54.0026897  95.4767593
  28.5158408  53.6857433  92.1231336  27.5654039  53.6859294  92.0095708
  28.8190894  52.9390167  91.6067370  32.4020963  31.6031319  88.2909516
  31.6353359  31.0489806  88.4366198  32.8131668  31.6753188  89.1523667
  36.9187623  61.3280876  89.1135514  36.3552488  61.2370812  88.3451801
  36.8040018  60.5080780  89.5938006  41.5420590  60.6280251  99.0824828
  41.5309231  60.2333049  98.2105332  41.7041230  59.8946323  99.6758600
  34.4652055  62.8232067  91.9519734  35.2573347  62.4822892  91.5366033
  34.7048705  62.9327042  92.8721887  38.2627851  63.4117363  98.0304012
  37.9717717  64.3162994  97.9150679  38.8984836  63.4533890  98.7448082
  39.1884058  60.7894211  94.6205372  39.7847631  60.5650234  93.9062335
  39.2459030  60.0478957  95.2230820  46.7286217  50.8966232  95.6257893
  46.3969542  51.7661643  95.4019108  46.1331830  50.5802516  96.3051924
  36.6730218  59.5492575  91.0590510  35.7480715  59.4168789  91.2668202
  36.9214631  60.3286794  91.5560453  34.0339029  59.1925849  91.8934299
  34.1631410  59.4460327  92.8073711  33.3536480  59.7853557  91.5738955
  38.2038516  69.8623099  87.9924774  38.1262546  70.8130924  88.0713254
  37.6000160  69.5168971  88.6499700  40.6955746  57.0350964 100.6486141
  39.9189080  57.5944884 100.6389005  41.3346309  57.5207747 101.1701011
  48.4876527  53.8177757  94.4829117  47.8450907  54.1110290  93.8368912
  47.9831455  53.7030677  95.2882314  38.9502118  59.8436417 100.2104108
  39.6916803  60.3821461  99.9338931  38.2439104  60.4702706 100.3675659
  44.4257458  61.9865558  98.8076269  44.8340814  61.5447968  98.0630901
  43.7034720  61.4118185  99.0610462  40.7788528  56.9238165  96.1809826
  41.6249723  57.3477578  96.3244475  40.7187166  56.2671789  96.8748389
  43.9287973  54.5842533  97.8391000  43.6848905  55.3384593  97.3025275
  44.2047904  54.9627881  98.6738247  45.8826436  61.1281145  96.5168265
  46.0943331  61.7712905  95.8402646  45.8356184  60.2943462  96.0490195
  37.1938316  61.8312638  92.7658406  37.7639673  62.2599906  92.1275891
  37.7846428  61.5495223  93.4642592  37.6863482  56.9976065 101.0119418
  37.0562143  57.6792346 101.2454814  37.5799570  56.8859147 100.0672556
  32.9808455  56.6647862  91.9385342  32.1907509  56.9205390  91.4625452
  33.4719702  57.4796199  92.0437382  40.7628868  63.5537144  96.8451333
  40.8273300  64.0157551  97.6809505  40.0539792  62.9234509  96.9733643
  31.2646158  56.9178352  94.3700333  31.5154196  57.8025362  94.6357908
  31.8005706  56.7382953  93.5975424  36.9644225  51.2996831 103.3744669
  36.5711170  50.7463030 104.0492313  37.7810365  51.6107410 103.7651186
  35.7401167  65.8546446  89.3680992  35.9167796  66.7764410  89.1801976
  36.5358001  65.5404865  89.7975371  39.8812186  52.7154710 100.9664925
  40.6221899  53.3161864 100.8869388  40.1130109  51.9732348 100.4082968
  35.0253524  57.9011078  99.2443155  34.9107039  56.9996335  99.5450254
  34.1698042  58.1474774  98.8927971  42.1045362  65.8428818 100.8430655
  41.6609216  65.0565197 100.5251560  42.7662575  66.0307968 100.1774546
  36.8632483  67.3724620  95.3691334  37.4139908  67.2441683  94.5968328
  36.0243959  67.6719509  95.0186227  44.2026600  66.1231618  98.8712057
  44.1845075  66.9440499  98.3792326  45.1246520  65.9985693  99.0962198
  40.6599654  63.6375747  99.7135565  41.1927991  62.8764036  99.4834873
  40.1313735  63.3449399 100.4559720  43.8269349  48.7435813  95.2429207
  43.4833618  49.6337455  95.1668317  44.1948311  48.5537471  94.3798792
  31.8955199  61.0669344  88.0617809  32.7330421  61.4766352  87.8451517
  32.0733467  60.1268786  88.0318003  39.1508775  51.1979198  92.2144622
  40.0161772  51.0022007  91.8550511  39.2186284  50.9689550  93.1413979
  39.9879032  66.9117982  90.5447779  39.9455211  67.1378829  89.6156311
  40.9041731  66.6781357  90.6933580  43.4344666  57.3802050  97.4428408
  43.7894054  57.6073523  98.3022874  44.0816797  57.7120427  96.8205664
  37.3284529  54.4878581  94.2274749  37.9683908  54.3467340  93.5297713
  36.4962059  54.2013094  93.8513351  38.1044833  63.7881011  90.3409742
  38.8985431  63.2931331  90.1392317  37.3936525  63.2598874  89.9777447
  42.9239677  66.1699107  94.6922109  42.9776700  66.7390043  95.4599825
  42.0554459  66.3400992  94.3276147  34.4127596  57.9324093  86.4169495
  33.4825184  57.8708549  86.6339457  34.5085068  57.4100046  85.6206136
  35.8038071  55.8716663  96.1746561  36.4761124  55.6634025  95.5259210
  34.9767857  55.6738749  95.7351793  50.0527332  62.6120713  95.6921894
  50.2463222  63.5166524  95.9381169  49.9527950  62.1528132  96.5260479
  41.7063643  52.4978604  98.1912222  41.0591558  53.1968554  98.0976698
  42.4764658  52.9314748  98.5588470  45.1142441  62.7627456 101.2662775
  44.9627947  62.5338008 100.3492859  45.1047120  63.7198058 101.2794120
  41.8827777  60.3359369  96.2509041  42.8119837  60.4870528  96.0778009
  41.4618807  60.4243390  95.3957688  40.6816109  64.3610033  94.0207579
  40.5427195  63.9928818  94.8933517  39.8930705  64.8757673  93.8491537
  41.2764261  69.4619130  85.3633116  41.4516016  68.9907173  86.1778738
  40.5897049  70.0884896  85.5914376  36.2065568  59.1459266  96.9348998
  36.0685366  58.4139505  97.5360537  37.1170491  59.0568166  96.6533186
  38.8347869  58.8579225  96.4232678  39.5447487  58.2172418  96.3819296
  38.7917177  59.1092120  97.3458858  46.8234647  65.7946579  99.3439257
  46.7647193  65.1105799  98.6769840  47.2254166  66.5365569  98.8919883
  37.5476803  55.8444443  98.2428317  37.0114160  55.3935182  98.8949913
  36.9593511  55.9790352  97.4998781  35.8425346  72.6108493  92.1372976
  36.0821944  73.2427017  92.8151994  34.9994543  72.2596533  92.4238335
  46.8252055  63.7586163  97.5753236  45.9378833  63.4212084  97.6979635
  47.3950606  63.0269194  97.8122002  28.4781202  60.0910254  90.8996288
  29.1652242  59.7771984  90.3117303  28.3229330  60.9951619  90.6263539
  33.2815924  54.9800451  95.3281312  33.1974113  54.3726120  94.5931721
  32.4598630  55.4709469  95.3290808  40.3553208  68.4187615  94.5414480
  40.2823379  69.2242586  95.0533784  39.9130601  68.6179581  93.7162501
  40.1442988  67.6559385  88.0517301  39.3610509  68.1981065  88.1455526
  40.8435733  68.1733365  88.4511542  42.8151891  68.3174449  96.6972638
  43.5279864  68.9521914  96.6248540  42.3241920  68.4138315  95.8812640
  37.8663805  66.0668892  97.5178209  38.5673264  66.7005375  97.6707603
  37.3958920  66.4083624  96.7573848  45.6665091  58.6213500  95.3430759
  45.0136541  58.8689407  94.6883212  46.0445471  57.8077638  95.0093237
  41.7152664  59.3633311 101.8296797  41.0393301  59.2627440 102.4999172
  42.5380298  59.2072525 102.2932794  33.4631523  65.6005247  94.4509312
  34.0484960  64.8548935  94.5837216  33.2656362  65.9109204  95.3345976
  36.3170178  68.6356495  89.4671754  35.6480554  69.1202623  88.9835794
  36.1783048  68.8825715  90.3815133  28.0549178  58.1710848  93.1713755
  28.0933277  57.6374438  93.9650873  27.5489471  57.6446053  92.5524732
  40.4575447  70.6700238  96.0654413  41.0093755  70.8331860  96.8303498
  40.7981640  71.2604676  95.3934437  35.4339940  53.0175388  96.6676297
  35.4981267  53.8790219  96.2553695  35.3707060  52.4049390  95.9348656
  34.9092213  55.0898521 100.3149332  35.5364251  54.7075598 100.9286856
  34.0520131  54.8712723 100.6805024  45.3086321  65.4961496 101.9203067
  45.8526225  66.1091454 101.4258022  44.7273166  66.0541074 102.4370080
  43.5943834  68.6182214  93.0518095  43.4694974  67.8171954  92.5429040
  44.2522925  69.1128407  92.5632065  35.2152002  54.9730946  92.2295235
  34.4938588  55.5866914  92.0902708  36.0045258  55.5088711  92.1511881
  45.6578743  66.4191234  94.6797645  44.7109078  66.2996585  94.6075972
  46.0061516  65.5313732  94.7623906  38.0178316  52.3085373  98.5035887
  38.5412718  52.5547669  99.2662196  37.7990649  53.1405408  98.0839024
  39.2230861  53.2499068  96.1885557  38.8827681  52.4506881  96.5906237
  38.5169867  53.5500779  95.6162390  39.8747333  50.3348380  94.6412880
  40.6973402  49.8608859  94.5191771  40.1185396  51.1138864  95.1411567
  37.3985912  57.0267501  92.4504859  37.2530492  57.3407804  93.3429140
  36.9211115  57.6452401  91.8975758  39.2582294  54.0170049  92.4985748
  39.2443863  53.1211142  92.1618046  39.9754723  54.0240713  93.1324034
  41.1108425  54.4507389  94.5438876  40.8526203  55.3724460  94.5423206
  40.5793465  54.0537824  95.2339340  31.8731574  59.5672846  95.3892520
  31.3285042  60.3432653  95.5212794  32.7510924  59.9143650  95.2311641
  32.6597596  58.6942742  98.2822677  31.9179332  58.8425377  98.8687307
  32.3390340  58.9551007  97.4189426  40.6041258  68.2358720  98.0803067
  40.9128385  67.9907867  98.9525767  41.4016740  68.4405358  97.5921937
  40.6261870  70.3896630  90.3108443  40.1866861  69.8973008  91.0041300
  41.3769987  69.8469597  90.0700519  33.1054209  66.5808170  90.3133072
  33.9312229  66.2811942  89.9331715  32.7548261  65.8115793  90.7622860
  38.0735742  65.9334639  92.3830745  37.4515752  65.2705344  92.0832973
  38.7440609  65.9595771  91.7004393  31.3062814  64.4994497  91.2722005
  30.4694723  64.0716671  91.0906006  31.2786460  64.6926940  92.2092796
  38.1460270  54.4116427 101.9763251  38.1948425  55.2878550 101.5941021
  38.6882784  53.8693820 101.4034894  48.6315116  64.9557550 101.2564388
  47.8410659  64.9381689 100.7168888  48.3948470  65.4945844 102.0113425
  48.7512991  61.8050016  98.5697117  48.8010996  61.6400024  99.5112640
  48.6426914  60.9377275  98.1794998  37.6349249  64.4838562  85.8589206
  37.7837370  65.1674026  85.2055878  38.4415693  64.4643652  86.3738661
  46.0416753  57.7880944  99.8856423  46.9426616  57.6487409  99.5940421
  46.1164728  57.9535399 100.8254601  40.3759558  55.1647799  98.7309610
  39.5062868  55.4581365  98.4592198  40.6119039  55.7488244  99.4516873
  50.2531187  64.2246958  98.8139138  49.9615996  64.5876938  99.6502599
  49.6403319  63.5113966  98.6352470  48.5018376  59.3479573  97.2819196
  48.9772497  59.5407219  96.4738048  47.5783941  59.4038758  97.0362580
  43.0798592  51.3827416  96.2475030  43.5980536  52.1188443  95.9221519
  42.7253725  51.6891409  97.0821789  43.3311186  47.8027699  91.7675927
  43.6112940  47.1350888  92.3936353  44.1161793  47.9956794  91.2550591
  47.2020045  56.2245333  95.5147502  48.1537468  56.3243430  95.5359726
  47.0323495  55.4323601  96.0245586  45.2234424  53.3100916  95.7006903
  44.6284356  53.5905929  95.0053391  44.9384121  53.7994817  96.4723644
  55.4984672  60.5067459  93.7695838  56.2288061  60.2452747  94.3303542
  54.8891618  59.7696181  93.8097906  41.4030146  62.3665251 102.1317663
  42.3233155  62.5443850 102.3257709  41.3679729  61.4221297 101.9797362
  30.6212311  57.5603845  91.0570937  30.3015095  56.7069153  90.7645311
  30.0745739  57.7752423  91.8128905  34.3992218  60.2766286  94.7740444
  34.6178228  61.2083394  94.7928478  34.8117992  59.9174260  95.5595248
  39.2720084  55.8499492 104.1643193  39.1716811  56.7993849 104.0955284
  39.0541626  55.5217731 103.2919263  30.4900571  61.1806757  93.0264059
  29.7964042  60.7660709  92.5134013  31.2373562  61.2227293  92.4297478
  39.1351354  59.2796631 102.9808254  38.6518435  60.0796991 103.1872143
  39.2212293  59.2904576 102.0275698  32.4037313  61.1125010  90.9030074
  32.3808001  61.2112698  89.9511957  32.7137950  61.9590161  91.2247240
  35.0624691  63.1701165  95.0176688  36.0167945  63.1385108  94.9506620
  34.8637215  62.7091789  95.8326914  35.6524073  61.7402281  97.5847486
  36.4716962  62.2346360  97.6082323  35.9260881  60.8234250  97.5565053
  33.4174920  68.7120785  92.0346886  33.2829388  67.9521186  91.4684884
  33.0006982  69.4361685  91.5675675  36.5744046  69.6090102  92.2465329
  36.4576430  70.5535534  92.1444019  35.7536492  69.3063663  92.6351128
  30.9058988  56.0740415  98.2839683  31.5517851  55.5639369  98.7726908
  30.6976139  56.8109097  98.8583108  43.4312380  63.1421263 103.7831823
  44.3003539  63.3161915 103.4218458  42.9519131  63.9615680 103.6607553
  37.5998560  70.2618364  95.4621257  38.5025807  70.2941974  95.7787752
  37.3735930  69.3318815  95.4767593  39.3552162  69.0149350  92.1231336
  38.4047793  69.0151212  92.0095708  39.6584648  68.2682085  91.6067370
  43.2414718  46.9323237  88.2909516  42.4747113  46.3781723  88.4366198
  43.6525423  47.0045105  89.1523667  35.2456479  53.2208032 102.3814697
  36.1087940  52.8644837 102.5918022  34.6721889  52.8821927 103.0690101
  55.0904856  74.8509889  93.1877098  55.7283266  74.7316636  92.4840438
  54.9725698  75.7990733  93.2465050  51.8994562  74.8037317  93.1238623
  51.5613073  74.6878381  92.2359158  52.7684330  74.4028482  93.1039629
  47.7581378  76.6572793  89.1135514  47.1946243  76.5662730  88.3451801
  47.6433773  75.8372698  89.5938006  52.3814345  75.9572169  99.0824828
  52.3702986  75.5624967  98.2105332  52.5434984  75.2238241  99.6758600
  45.3045809  78.1523985  91.9519734  46.0967101  77.8114809  91.5366033
  45.5442460  78.2618960  92.8721887  53.3380936  80.3243761  84.4249979
  52.6868916  80.9097841  84.0383992  54.1325299  80.8549956  84.4845016
  47.2636563  77.4132898  84.8237113  48.0367439  76.8661885  84.6849989
  47.6161962  78.2777147  85.0351574  49.1021606  78.7409280  98.0304012
  48.8111472  79.6454911  97.9150679  49.7378590  78.7825808  98.7448082
  50.0277813  76.1186129  94.6205372  50.6241385  75.8942151  93.9062335
  50.0852784  75.3770874  95.2230820  49.6002841  73.5725564  82.4555563
  49.8528362  73.0507085  81.6939026  48.6627400  73.4091710  82.5582246
  54.6446124  72.5761343  90.2630306  55.4309213  72.1580766  89.9120723
  54.9084828  73.4807435  90.4311955  54.8156201  78.0134193  84.9618963
  54.1802034  78.0868819  85.6739868  54.4853608  78.6027792  84.2838042
  60.0454551  72.5136576  91.1663285  60.7779723  71.9435793  91.4001114
  59.2893907  72.1258176  91.6069790  49.3199130  75.4753670  84.6579938
  49.2035388  74.7998574  85.3261022  49.4301390  74.9886044  83.8412091
  51.6630671  74.9363817  88.3626627  51.2988878  74.4094438  89.0739549
  52.5197787  74.5462286  88.1893112  57.5679972  66.2258150  95.6257893
  57.2363296  67.0953561  95.4019108  56.9725585  65.9094434  96.3051924
  54.0611491  78.4270696  95.0253806  53.7612214  79.3295735  94.9169613
  53.7162551  78.1602879  95.8774959  47.5123973  74.8784493  91.0590510
  46.5874469  74.7460707  91.2668202  47.7608386  75.6578712  91.5560453
  57.4608635  70.9453236  92.7051243  56.5525512  70.8768644  92.4110004
  57.4096231  71.4225181  93.5333069  44.8732784  74.5217766  91.8934299
  45.0025165  74.7752245  92.8073711  44.1930235  75.1145474  91.5738955
  49.0432271  85.1915016  87.9924774  48.9656301  86.1422841  88.0713254
  48.4393914  84.8460889  88.6499700  51.5349501  72.3642882 100.6486141
  50.7582835  72.9236802 100.6389005  52.1740064  72.8499665 101.1701011
  59.3270281  69.1469674  94.4829117  58.6844661  69.4402208  93.8368912
  58.8225210  69.0322595  95.2882314  49.7895873  75.1728335 100.2104108
  50.5310557  75.7113379  99.9338931  49.0832858  75.7994624 100.3675659
  55.2651213  77.3157475  98.8076269  55.6734569  76.8739886  98.0630901
  54.5428474  76.7410103  99.0610462  51.6182283  72.2530082  96.1809826
  52.4643478  72.6769496  96.3244475  51.5580920  71.5963707  96.8748389
  55.5880027  77.8758666  92.5628558  54.9588890  78.0404380  91.8604626
  55.2005689  78.2900276  93.3339522  59.4669259  78.8113104  89.9172922
  58.7820297  79.1912005  89.3669955  59.5513108  79.4208431  90.6504869
  54.7681728  69.9134451  97.8391000  54.5242660  70.6676511  97.3025275
  55.0441658  70.2919798  98.6738247  56.7220191  76.4573063  96.5168265
  56.9337086  77.1004823  95.8402646  56.6749939  75.6235380  96.0490195
  54.3246420  69.0690884  93.4204837  53.4630899  69.3672137  93.7121575
  54.3508854  69.2861282  92.4885870  51.1407989  77.6133074  89.8278643
  51.6046335  77.8920777  89.0383266  50.8764787  76.7116519  89.6451734
  48.0332070  77.1604556  92.7658406  48.6033427  77.5891824  92.1275891
  48.6240182  76.8787140  93.4642592  50.0776875  73.7356227  86.6368208
  50.7800918  74.1877270  87.1042135  49.7457504  73.0940045  87.2648101
  48.5257237  72.3267983 101.0119418  47.8955897  73.0084264 101.2454814
  48.4193325  72.2151065 100.0672556  43.8202209  71.9939779  91.9385342
  43.0301263  72.2497308  91.4625452  44.3113456  72.8088117  92.0437382
  57.8366019  79.3345018  94.6890623  58.6583462  78.9325206  94.4073304
  57.8328422  79.2313253  95.6406738  45.7716954  72.3584358  88.8968818
  44.9748118  72.4703053  89.4152314  45.5442547  72.6971011  88.0309709
  51.6022622  78.8829062  96.8451333  51.6667055  79.3449469  97.6809505
  50.8933546  78.2526427  96.9733643  42.1039912  72.2470270  94.3700333
  42.3547951  73.1317280  94.6357908  42.6399460  72.0674871  93.5975424
  65.9272012  75.6783767  91.0375594  65.1735720  75.1091165  90.8819598
  66.0619553  75.6446431  91.9846229  51.3170640  80.5497169  86.7130313
  51.1816315  81.3948705  87.1415161  51.8580452  80.7516447  85.9496247
  47.8037979  66.6288749 103.3744669  47.4104925  66.0754948 104.0492313
  48.6204120  66.9399327 103.7651186  44.7700037  78.0672607  87.2858238
  45.2824558  78.8615857  87.4363803  45.4222750  77.3698898  87.2191840
  46.5794922  81.1838363  89.3680992  46.7561550  82.1056328  89.1801976
  47.3751755  80.8696783  89.7975371  50.7205940  68.0446628 100.9664925
  51.4615654  68.6453781 100.8869388  50.9523863  67.3024266 100.4082968
  45.8647278  73.2302995  99.2443155  45.7500794  72.3288253  99.5450254
  45.0091796  73.4766692  98.8927971  47.7026237  82.7016537  95.3691334
  48.2533662  82.5733601  94.5968328  46.8637713  83.0011426  95.0186227
  54.6663103  64.0727731  95.2429207  54.3227373  64.9629373  95.1668317
  55.0342066  63.8829389  94.3798792  42.7348954  76.3961261  88.0617809
  43.5724176  76.8058270  87.8451517  42.9127222  75.4560704  88.0318003
  53.7459644  66.4432386  93.2078440  53.2424439  66.4062521  92.3946245
  54.0390251  67.3525129  93.2675097  49.9902530  66.5271116  92.2144622
  50.8555526  66.3313925  91.8550511  50.0580039  66.2981468  93.1413979
  59.6047660  76.8168697  85.6854815  58.8277103  76.4779856  85.2409978
  60.2839141  76.8221320  85.0109780  52.8646121  78.0953658  87.2254377
  52.3367483  77.3606417  86.9127615  52.3633624  78.8728334  86.9794345
  57.8438967  76.2902678  92.3421423  57.1862642  76.9801939  92.4301552
  58.6479366  76.6799110  92.6855410  56.6544426  74.6447051  90.3925365
  57.1676308  75.2777043  90.8947075  57.3045650  74.0448246  90.0268725
  53.9166800  84.6231375  83.1486036  53.2428499  84.9263072  83.7570994
  54.3032622  85.4260455  82.7991493  53.1325257  72.1196506  92.6383706
  52.2147818  72.3411453  92.4805394  53.5485400  72.1942817  91.7795413
  52.1886955  76.0146463  84.7513340  51.2798174  75.7305495  84.8485810
  52.2182038  76.4345541  83.8916647  57.4206222  79.6253052  88.5204508
  56.9668549  78.7843962  88.5769698  56.7900189  80.2614451  88.8579288
  56.3639142  70.5545038  89.7505175  55.6261898  70.0422424  90.0815418
  56.6165915  70.1145420  88.9388452  55.8639161  81.4629549  89.4554326
  56.1562136  82.0234606  88.7366692  56.3737782  81.7558110  90.2107485
  56.4650769  63.3321290  90.3446945  56.7709646  62.4718654  90.0572860
  57.1903374  63.9238910  90.1445938  42.7575125  73.7351977  88.7328542
  42.5599525  73.1421338  88.0079609  42.2021789  73.4304187  89.4504481
  50.7371849  73.6275083  90.8523136  50.7920459  72.6748920  90.7765612
  49.9263051  73.7834522  91.3364434  51.8863042  77.5555206  82.0901419
  51.4482472  76.8391065  81.6307056  52.6273483  77.7831321  81.5286510
  48.6764209  72.2452143  88.6113514  47.8632074  72.5446314  89.0178707
  49.1723203  71.8507832  89.3287997  50.8272787  82.2409900  90.5447779
  50.7848965  82.4670746  89.6156311  51.7435485  82.0073275  90.6933580
  54.2738420  72.7093968  97.4428408  54.6287808  72.9365441  98.3022874
  54.9210552  73.0412344  96.8205664  60.0036157  75.8312403  88.1477737
  59.8654056  76.0213999  87.2198927  59.6472376  76.5931786  88.6045789
  48.1678283  69.8170499  94.2274749  48.8077663  69.6759258  93.5297713
  47.3355814  69.5305012  93.8513351  60.0305537  77.8988930  93.1589009
  60.4642044  77.8064219  94.0072063  60.7437118  77.8746431  92.5209025
  48.9438587  79.1172929  90.3409742  49.7379186  78.6223249  90.1392317
  48.2330280  78.5890792  89.9777447  53.7633432  81.4991025  94.6922109
  53.8170454  82.0681961  95.4599825  52.8948213  81.6692910  94.3276147
  45.2521351  73.2616011  86.4169495  44.3218939  73.2000466  86.6339457
  45.3478823  72.7391963  85.6206136  46.6431825  71.2008581  96.1746561
  47.3154879  70.9925943  95.5259210  45.8161612  71.0030667  95.7351793
  60.8921086  77.9412631  95.6921894  61.0856977  78.8458442  95.9381169
  60.7921705  77.4820050  96.5260479  52.5457397  67.8270522  98.1912222
  51.8985312  68.5260471  98.0976698  53.3158413  68.2606666  98.5588470
  52.7221532  75.6651287  96.2509041  53.6513592  75.8162446  96.0778009
  52.3012562  75.7535307  95.3957688  51.5209863  79.6901951  94.0207579
  51.3820949  79.3220735  94.8933517  50.7324460  80.2049590  93.8491537
  52.1158015  84.7911047  85.3633116  52.2909771  84.3199091  86.1778738
  51.4290803  85.4176814  85.5914376  53.0715078  79.0683554  91.4096417
  52.7364911  79.0284324  92.3054067  52.5719024  78.4028270  90.9366827
  47.0459322  74.4751184  96.9348998  46.9079120  73.7431423  97.5360537
  47.9564246  74.3860084  96.6533186  56.0074270  76.4139588  81.6833476
  55.3903441  75.6886416  81.5866529  55.5390759  77.1748948  81.3400551
  49.6741623  74.1871143  96.4232678  50.3841242  73.5464335  96.3819296
  49.6310931  74.4384038  97.3458858  48.3870557  71.1736361  98.2428317
  47.8507914  70.7227099  98.8949913  47.7987266  71.3082270  97.4998781
  46.6819101  87.9400410  92.1372976  46.9215699  88.5718934  92.8151994
  45.8388297  87.5888450  92.4238335  39.3174956  75.4202172  90.8996288
  40.0045996  75.1063902  90.3117303  39.1623085  76.3243537  90.6263539
  44.1209678  70.3092369  95.3281312  44.0367867  69.7018038  94.5931721
  43.2992385  70.8001387  95.3290808  51.1946962  83.7479533  94.5414480
  51.1217134  84.5534504  95.0533784  50.7524356  83.9471498  93.7162501
  50.9836742  82.9851303  88.0517301  50.2004264  83.5272983  88.1455526
  51.6829487  83.5025282  88.4511542  54.2933392  68.7945932  90.6951507
  54.7902092  68.0415894  90.3752577  53.5220374  68.8310249  90.1294716
  62.1463150  74.4986298  92.3369798  62.1353026  75.3811013  91.9663731
  61.2780529  74.1457848  92.1424335  55.3763173  77.5517619  88.2689930
  54.4419452  77.6719082  88.0994634  55.5539841  76.6490086  88.0049940
  50.8768361  70.9363315  90.4223191  50.5066148  70.3834355  91.1104097
  51.3727453  70.3321449  89.8698191  58.7635724  73.3934939  88.8039964
  59.2296176  74.2262930  88.7300267  59.2143225  72.9279920  89.5085223
  48.7057559  81.3960810  97.5178209  49.4067019  82.0297293  97.6707603
  48.2352674  81.7375542  96.7573848  56.8311955  79.7378760  85.8026116
  57.1071799  79.6235354  86.7119990  55.9616454  79.3396245  85.7638289
  56.7352387  65.7615526  92.8430865  55.8215467  65.9919752  93.0113072
  57.1645488  65.8453970  93.6944898  56.5058845  73.9505418  95.3430759
  55.8530296  74.1981325  94.6883212  56.8839225  73.1369556  95.0093237
  53.4666019  83.9865111  89.4458930  53.6488414  83.1686767  89.9086682
  54.2899005  84.2032803  89.0083820  53.8008185  82.9133296  86.7073978
  54.3295951  82.4025750  86.0944140  54.0636404  82.5975826  87.5719511
  44.3025278  80.9297165  94.4509312  44.8878714  80.1840853  94.5837216
  44.1050116  81.2401122  95.3345976  47.1563933  83.9648413  89.4671754
  46.4874308  84.4494540  88.9835794  47.0176802  84.2117633  90.3815133
  38.8942932  73.5002765  93.1713755  38.9327032  72.9666356  93.9650873
  38.3883225  72.9737971  92.5524732  46.2733695  68.3467306  96.6676297
  46.3375021  69.2082137  96.2553695  46.2100815  67.7341308  95.9348656
  45.7485967  70.4190438 100.3149332  46.3758006  70.0367516 100.9286856
  44.8913886  70.2004640 100.6805024  42.5251510  72.2266868  86.2467686
  42.8204951  71.3177546  86.1934740  41.6239546  72.2054607  85.9248689
  54.4337589  83.9474132  93.0518095  54.3088728  83.1463871  92.5429040
  55.0916680  84.4420325  92.5632065  46.0545757  70.3022864  92.2295235
  45.3332343  70.9158832  92.0902708  46.8439013  70.8380629  92.1511881
  56.4972497  81.7483152  94.6797645  55.5502833  81.6288503  94.6075972
  56.8455270  80.8605650  94.7623906  48.8572070  67.6377291  98.5035887
  49.3806472  67.8839587  99.2662196  48.6384404  68.4697325  98.0839024
  53.5018930  81.5435868  90.8801997  53.3543893  80.6152575  91.0609567
  54.3272424  81.5655959  90.3959072  47.3681175  70.1953935  86.7382489
  47.7077247  70.7239856  86.0161098  47.8153295  70.5334341  87.5141056
  57.1053052  82.3664427  91.9666870  58.0299600  82.1607288  91.8291321
  56.9368356  82.1180828  92.8756211  50.0624615  68.5790986  96.1885557
  49.7221436  67.7798799  96.5906237  49.3563622  68.8792697  95.6162390
  50.7141087  65.6640298  94.6412880  51.5367157  65.1900776  94.5191771
  50.9579151  66.4430782  95.1411567  48.2379666  72.3559419  92.4504859
  48.0924247  72.6699722  93.3429140  47.7604870  72.9744319  91.8975758
  50.0976049  69.3461967  92.4985748  50.0837618  68.4503060  92.1618046
  50.8148477  69.3532631  93.1324034  51.9502180  69.7799307  94.5438876
  51.6919957  70.7016378  94.5423206  51.4187220  69.3829742  95.2339340
  56.8948368  82.8850094  87.3228961  57.0685246  82.3196517  86.5702814
  57.3877260  83.6850989  87.1408451  42.7125328  74.8964763  95.3892520
  42.1678796  75.6724571  95.5212794  43.5904678  75.2435568  95.2311641
  62.7487760  75.6486517  88.9419261  63.1918906  74.8993842  88.5438384
  61.8714270  75.6396653  88.5592993  57.8823541  82.2016859  84.4225860
  58.5774445  82.8223551  84.6413174  58.2246691  81.3512210  84.6978237
  43.4991350  74.0234659  98.2822677  42.7573086  74.1717295  98.8687307
  43.1784094  74.2842925  97.4189426  59.7814964  79.6516564  85.9513190
  60.3066288  79.9903837  85.2262510  59.6937317  78.7163579  85.7676325
  51.4655625  85.7188547  90.3108443  51.0260615  85.2264926  91.0041300
  52.2163742  85.1761515  90.0700519  43.9447964  81.9100088  90.3133072
  44.7705984  81.6103860  89.9331715  43.5942016  81.1407711  90.7622860
  48.9129497  81.2626556  92.3830745  48.2909506  80.5997261  92.0832973
  49.5834364  81.2887688  91.7004393  42.1456569  79.8286415  91.2722005
  41.3088477  79.4008589  91.0906006  42.1180214  80.0218858  92.2092796
  48.9854024  69.7408344 101.9763251  49.0342180  70.6170467 101.5941021
  49.5276539  69.1985737 101.4034894  48.4743004  79.8130480  85.8589206
  48.6231124  80.4965944  85.2055878  49.2809447  79.7935570  86.3738661
  56.8810507  73.1172862  99.8856423  57.7820370  72.9779327  99.5940421
  56.9558482  73.2827317 100.8254601  51.2153313  70.4939717  98.7309610
  50.3456622  70.7873283  98.4592198  51.4512793  71.0780162  99.4516873
  62.2920624  77.1191755  91.3341709  63.1267516  77.5581559  91.4979269
  62.4279753  76.6430409  90.5149954  59.3412130  74.6771490  97.2819196
  59.8166252  74.8699136  96.4738048  58.4177696  74.7330676  97.0362580
  46.2295637  75.8395657  86.8650275  45.9841679  74.9357987  87.0630485
  46.3991551  75.8412808  85.9229753  53.9192347  66.7119334  96.2475030
  54.4374291  67.4480361  95.9221519  53.5647479  67.0183327  97.0821789
  45.4991284  71.5724015  84.3636436  44.8060529  71.6468370  83.7076472
  45.2543036  70.8084359  84.8857953  54.1704941  63.1319616  91.7675927
  54.4506695  62.4642805  92.3936353  54.9555548  63.3248712  91.2550591
  51.9738409  82.3078610  83.3300953  51.4012376  82.9268797  82.8771425
  52.5471203  82.8577972  83.8640875  58.0413799  71.5537250  95.5147502
  58.9931222  71.6535348  95.5359726  57.8717250  70.7615519  96.0245586
  56.0628179  68.6392833  95.7006903  55.4678111  68.9197846  95.0053391
  55.7777875  69.1286734  96.4723644  55.1935669  82.5915760  84.4609535
  56.1266342  82.5261322  84.6642411  55.1058882  83.4272027  84.0024068
  57.8223686  81.9081631  81.4213483  57.7437317  81.5741494  82.3149241
  58.6433353  82.4003399  81.4204955  60.5201877  74.7743370  94.6289802
  60.4878197  73.8359371  94.8149485  61.1302501  74.8527407  93.8955626
  52.3585208  73.6439423  80.6717006  53.3044313  73.5145631  80.7405424
  51.9799453  72.9054085  81.1486434  60.6696365  71.5654413  94.6748085
  60.1535414  70.7812870  94.4878014  61.5536314  71.2373130  94.8394604
  58.3307092  65.3095429  90.6343897  58.1331913  65.0010517  91.5187229
  58.9406798  66.0357068  90.7641827  66.3378427  75.8359377  93.7695838
  67.0681815  75.5744665  94.3303542  65.7285372  75.0988099  93.8097906
  64.4193724  73.9767239  94.3670290  63.6926888  73.8423204  93.7586781
  64.0041011  74.2844068  95.1727008  41.4606065  72.8895763  91.0570937
  41.1408850  72.0361071  90.7645311  40.9139494  73.1044341  91.8128905
  45.2385973  75.6058204  94.7740444  45.4571983  76.5375312  94.7928478
  45.6511747  75.2466178  95.5595248  50.1113838  71.1791409 104.1643193
  50.0110565  72.1285766 104.0955284  49.8935380  70.8509648 103.2919263
  41.3294325  76.5098674  93.0264059  40.6357797  76.0952627  92.5134013
  42.0767316  76.5519211  92.4297478  55.9163112  66.7009919  90.0940413
  56.4162891  66.8126453  89.2854732  56.5598720  66.3970972  90.7341222
  43.2431068  76.4416928  90.9030074  43.2201756  76.5404615  89.9511957
  43.5531704  77.2882079  91.2247240  45.9018446  78.4993083  95.0176688
  46.8561699  78.4677025  94.9506620  45.7030969  78.0383707  95.8326914
  46.4917828  77.0694199  97.5847486  47.3110717  77.5638278  97.6082323
  46.7654636  76.1526167  97.5565053  59.5998960  69.4851472  90.6629781
  60.3759350  69.9747925  90.9354397  58.8747094  69.9109527  91.1201650
  62.0371519  70.1979092  91.7203721  62.6316010  69.9574828  91.0097029
  62.1098103  69.4786222  92.3477257  44.2568675  84.0412703  92.0346886
  44.1223142  83.2813103  91.4684884  43.8400737  84.7653602  91.5675675
  55.3927638  79.2249626  81.0423461  56.0963488  79.4299629  81.6581117
  54.6690286  79.7926388  81.3072545  56.2225448  74.9759487  87.1625731
  56.1660649  75.4328039  86.3233364  56.7753790  74.2150172  86.9848574
  60.0330254  70.7649219  87.9875851  59.7767188  70.3645855  88.8184059
  59.4083122  71.4793013  87.8625990  64.3442592  73.5045292  90.4947142
  63.7842150  73.5738482  91.2678704  63.7386095  73.3286277  89.7746639
  47.4137800  84.9382020  92.2465329  47.2970185  85.8827452  92.1444019
  46.5930247  84.6355581  92.6351128  57.3014335  79.6632155  83.0921921
  58.1359939  79.2313354  82.9099396  57.1398678  79.4914169  84.0198816
  56.9560227  76.1664269  84.4578261  56.9009031  76.0008540  83.5166705
  56.3306282  76.8740301  84.6140450  41.7452742  71.4032333  98.2839683
  42.3911606  70.8931287  98.7726908  41.5369893  72.1401015  98.8583108
  48.4392315  85.5910281  95.4621257  49.3419561  85.6233892  95.7787752
  48.2129685  84.6610732  95.4767593  50.1945917  84.3441268  92.1231336
  49.2441548  84.3443130  92.0095708  50.4978403  83.5974003  91.6067370
  46.0850233  68.5499950 102.3814697  46.9481695  68.1936755 102.5918022
  45.5115644  68.2113845 103.0690101  58.5975132  91.9864711  89.1135514
  58.0339997  91.8954648  88.3451801  58.4827527  91.1664615  89.5938006
  58.1030318  92.7424816  84.8237113  58.8761194  92.1953803  84.6849989
  58.4555717  93.6069065  85.0351574  60.4396596  88.9017482  82.4555563
  60.6922116  88.3799003  81.6939026  59.5021155  88.7383627  82.5582246
  65.6549956  93.3426111  84.9618963  65.0195789  93.4160737  85.6739868
  65.3247362  93.9319709  84.2838042  60.1592884  90.8045588  84.6579938
  60.0429143  90.1290491  85.3261022  60.2695144  90.3177962  83.8412091
  62.5024425  90.2655735  88.3626627  62.1382633  89.7386356  89.0739549
  63.3591541  89.8754204  88.1893112  62.1429912  85.2945635  83.3587976
  62.3104315  86.1625871  83.7258447  61.9527081  85.4572916  82.4349265
  62.1219133  87.7503292  84.3434642  62.0018758  88.1960343  85.1820123
  61.4271722  88.0988610  83.7848181  67.8204199  88.2224765  85.1714976
  68.7322056  88.4552152  84.9962674  67.3113846  88.8061810  84.6090055
  60.9170630  89.0648144  86.6368208  61.6194673  89.5169188  87.1042135
  60.5851258  88.4231963  87.2648101  54.6595964  87.3231697  91.9385342
  53.8695018  87.5789225  91.4625452  55.1507211  88.1380035  92.0437382
  56.6110709  87.6876276  88.8968818  55.8141872  87.7994970  89.4152314
  56.3836301  88.0262928  88.0309709  55.6093792  93.3964525  87.2858238
  56.1218312  94.1907775  87.4363803  56.2616504  92.6990815  87.2191840
  53.5742708  91.7253179  88.0617809  54.4117930  92.1350188  87.8451517
  53.7520976  90.7852621  88.0318003  65.4707141  89.3928260  83.7501642
  64.9553764  90.1632864  83.9890029  65.1984449  88.7193396  84.3734703
  63.0554252  84.2377961  88.8086880  62.1995848  83.8484811  88.6292519
  63.4681203  84.3169921  87.9486666  60.8296284  81.8563034  92.2144622
  61.6949281  81.6605842  91.8550511  60.8973793  81.6273385  93.1413979
  65.2593444  87.2655352  85.5761423  64.9543579  87.5801501  86.4271566
  66.2123886  87.3436772  85.6188756  58.4358603  84.0865242  89.5860989
  59.0102355  83.8640423  88.8534182  59.0229586  84.1553936  90.3389590
  58.7628190  86.1169703  83.6056874  57.9265503  86.4544389  83.9266149
  58.6232960  85.9818682  82.6684011  60.7381271  80.9606490  88.3136058
  60.0845683  80.6455508  87.6892673  60.6961745  80.3382231  89.0395881
  61.8492476  91.2425785  80.2289350  60.9419537  91.0115039  80.4280499
  62.3463508  90.4463405  80.4163332  64.7554059  88.8479840  87.7686386
  65.5025878  89.3601237  87.4593508  65.0245649  88.5263892  88.6290780
  63.0280709  91.3438380  84.7513340  62.1191928  91.0597413  84.8485810
  63.0575793  91.7637459  83.8916647  67.3044523  78.6613208  90.3446945
  67.6103400  77.8010571  90.0572860  68.0297128  79.2530828  90.1445938
  53.5968880  89.0643894  88.7328542  53.3993279  88.4713255  88.0079609
  53.0415544  88.7596105  89.4504481  62.7256797  92.8847124  82.0901419
  62.2876227  92.1682983  81.6307056  63.4667238  93.1123239  81.5286510
  59.5157963  87.5744061  88.6113514  58.7025829  87.8738231  89.0178707
  60.0116957  87.1799749  89.3287997  56.0915105  88.5907928  86.4169495
  55.1612693  88.5292384  86.6339457  56.1872577  88.0683881  85.6206136
  56.0100654  85.1162741  89.0047736  56.2707472  86.0308074  88.8956897
  56.8317827  84.6487184  89.1544349  66.8468025  91.7431506  81.6833476
  66.2297195  91.0178334  81.5866529  66.3784513  92.5040866  81.3400551
  58.6366571  85.9616930  80.8054781  57.7596037  85.8405731  80.4417027
  59.1124324  85.1703008  80.5533669  50.1568711  90.7494090  90.8996288
  50.8439750  90.4355820  90.3117303  50.0016839  91.6535454  90.6263539
  65.1327147  84.1237850  90.6951507  65.6295846  83.3707812  90.3752577
  64.3614128  84.1602166  90.1294716  61.7162115  86.2655233  90.4223191
  61.3459903  85.7126273  91.1104097  62.2121208  85.6613366  89.8698191
  49.7336687  88.8294683  93.1713755  49.7720786  88.2958274  93.9650873
  49.2276980  88.3029889  92.5524732  53.3645264  87.5558785  86.2467686
  53.6598705  86.6469464  86.1934740  52.4633300  87.5346525  85.9248689
  56.8939511  85.6314782  92.2295235  56.1726097  86.2450750  92.0902708
  57.6832767  86.1672547  92.1511881  55.0933106  85.2372883  86.3707012
  54.7645812  84.3570262  86.1882117  55.4472477  85.1820552  87.2583401
  58.2074929  85.5245853  86.7382489  58.5471002  86.0531774  86.0161098
  58.6547050  85.8626259  87.5141056  60.1943076  84.0220474  84.9375782
  60.9151439  84.4001727  84.4339499  59.5708380  84.7409351  85.0410760
  64.3374199  84.7265623  85.8734114  64.5537814  85.6090261  85.5722942
  63.8568266  84.3351837  85.1439756  60.3406699  83.5568265  87.7673319
  60.4622611  82.6284911  87.9664206  60.0508742  83.5706951  86.8551634
  63.2097890  81.2423175  90.9040038  63.2319587  81.3062508  89.9492018
  63.6265949  80.4027684  91.0980545  59.3136758  95.1422397  85.8589206
  59.4624879  95.8257862  85.2055878  60.1203202  95.1227487  86.3738661
  57.0689391  91.1687575  86.8650275  56.8235433  90.2649905  87.0630485
  57.2385306  91.1704725  85.9229753  56.3385039  86.9015933  84.3636436
  55.6454284  86.9760288  83.7076472  56.0936791  86.1376276  84.8857953
  65.0098695  78.4611534  91.7675927  65.2900449  77.7934723  92.3936353
  65.7949302  78.6540630  91.2550591  62.8132164  97.6370528  83.3300953
  62.2406131  98.2560715  82.8771425  63.3864957  98.1869890  83.8640875
  68.6617440  97.2373548  81.4213483  68.5831072  96.9033412  82.3149241
  69.4827107  97.7295316  81.4204955  63.1978962  88.9731341  80.6717006
  64.1438067  88.8437549  80.7405424  62.8193207  88.2346003  81.1486434
  69.1700847  80.6387347  90.6343897  68.9725668  80.3302435  91.5187229
  69.7800552  81.3648986  90.7641827  61.3821879  86.8981317  80.6071891
  60.4753335  86.6014430  80.6834604  61.6597860  86.6011135  79.7406177
  52.2999820  88.2187680  91.0570937  51.9802604  87.3652989  90.7645311
  51.7533248  88.4336259  91.8128905  62.9983945  81.4418207  86.7616132
  62.1884673  81.0965292  87.1371378  63.6868362  81.1325750  87.3503744
  64.9274493  80.5196254  88.3840429  65.4805532  80.9391707  89.0430452
  65.1644580  79.5932002  88.4263385  60.1520664  83.7568252  80.7483870
  61.0139828  84.0823151  81.0079687  60.3371008  82.9699748  80.2356936
  68.3053301  82.6296779  87.8919093  67.7251970  83.2881583  87.5097145
  68.0389233  81.8074123  87.4806511  66.7556867  82.0301836  90.0940413
  67.2556645  82.1418371  89.2854732  67.3992475  81.7262889  90.7341222
  67.0878179  84.7896869  86.9475441  66.2004034  85.0746520  86.7295636
  67.5032168  84.6290632  86.1002718  66.2321392  94.5541544  81.0423461
  66.9357242  94.7591546  81.6581117  65.5084041  95.1218306  81.3072545
  67.7953982  91.4956186  84.4578261  67.7402785  91.3300458  83.5166705
  67.1700037  92.2032219  84.6140450  61.1050107  80.9964295  84.0363579
  61.0928777  81.9406135  84.1931850  61.9973529  80.8134441  83.7423040
  64.9202227  77.5907072  88.2909516  64.1534622  77.0365559  88.4366198
  65.3312932  77.6628941  89.1523667  20.8199674  11.3430130  71.1495285
  20.1687654  11.9284211  70.7629299  21.6144037  11.8736325  71.2090323
  14.7455301   8.4319268  71.5482420  15.5186177   7.8848255  71.4095295
  15.0980700   9.2963517  71.7596881  22.2974939   9.0320562  71.6864270
  21.6620772   9.1055189  72.3985174  21.9672346   9.6214161  71.0083349
  16.8017868   6.4940040  71.3825244  16.6854126   5.8184943  72.0506329
  16.9120128   6.0072414  70.5657398  18.7644117   3.4397744  71.0679949
  18.6443742   3.8854795  71.9065429  18.0696705   3.7883062  70.5093487
  16.5251009  16.2101386  74.7170080  16.4475038  17.1609211  74.7958561
  15.9212652  15.8647258  75.3745007  24.4629183   3.9119217  71.8960283
  25.3747039   4.1446604  71.7207981  23.9538830   4.4956261  71.3335362
  26.9487997   9.8299473  76.6418228  26.2639035  10.2098375  76.0915262
  27.0331846  10.4394800  77.3750176  33.4090750   6.6970136  77.7620901
  32.6554458   6.1277534  77.6064905  33.5438291   6.6632801  78.7091535
  18.7989378  11.5683539  73.4375620  18.6635052  12.4135074  73.8660468
  19.3399190  11.7702816  72.6741554  12.2518775   9.0858977  74.0103545
  12.7643296   9.8802227  74.1609110  12.9041488   8.3885267  73.9437147
  14.0613660  12.2024733  76.0926298  14.2380288  13.1242698  75.9047282
  14.8570493  11.8883152  76.5220678  22.1132124   5.0822712  70.4746949
  21.5978747   5.8527316  70.7135336  21.8409432   4.4087848  71.0980010
  27.0866398   7.8355066  72.4100122  26.3095841   7.4966226  71.9655284
  27.7657879   7.8407690  71.7355087  21.9018427   2.9549804  72.3006730
  21.5968563   3.2695953  73.1516873  22.8548869   3.0331224  72.3434063
  20.3464859   9.1140027  73.9499684  19.8186220   8.3792787  73.6372921
  19.8452362   9.8914703  73.7039652  18.4917459   6.9320237  66.9534657
  17.5844521   6.7009491  67.1525806  18.9888491   6.1357857  67.1408638
  21.3985538  15.6417745  69.8731343  20.7247237  15.9449441  70.4816301
  21.7851360  16.4446825  69.5236800  19.6705692   7.0332832  71.4758647
  18.7616912   6.7491865  71.5731117  19.7000776   7.4531911  70.6161954
  24.9024960  10.6439422  75.2449814  24.4487287   9.8030332  75.3015005
  24.2718927  11.2800820  75.5824595  23.3457899  12.4815918  76.1799633
  23.6380874  13.0420976  75.4611998  23.8556520  12.7744479  76.9352792
  19.3681780   8.5741576  68.8146725  18.9301210   7.8577435  68.3552363
  20.1092221   8.8017691  68.2531817  18.3091524  13.2596270  77.2693086
  18.2667703  13.4857116  76.3401618  19.2254223  13.0259644  77.4178887
  27.4854895   6.8498773  74.8723044  27.3472794   7.0400369  73.9444233
  27.1291114   7.6118156  75.3291095  19.5976753  15.8097417  72.0878422
  19.7728509  15.3385460  72.9024045  18.9109541  16.4363183  72.3159683
  23.4893008   7.4325958  68.4078783  22.8722179   6.7072786  68.3111836
  23.0209496   8.1935318  68.0645857  14.1637838  18.9586780  78.8618282
  14.4034437  19.5905304  79.5397301  13.3207035  18.6074820  79.1483642
  18.4655480  14.0037672  74.7762608  17.6823002  14.5459352  74.8700832
  19.1648225  14.5211652  75.1756849  22.8581911   8.5703989  74.9935237
  21.9238189   8.6905451  74.8239941  23.0358579   7.6676456  74.7295246
  26.2454462   4.4121308  75.5285271  26.7114914   5.2449300  75.4545573
  26.6961962   3.9466290  76.2330529  24.3130693  10.7565129  72.5271423
  24.5890537  10.6421724  73.4365297  23.4435192  10.3582614  72.4883596
  20.9484757  15.0051480  76.1704236  21.1307152  14.1873136  76.6331989
  21.7717743  15.2219173  75.7329126  21.2826923  13.9319665  73.4319285
  21.8114689  13.4212120  72.8189447  21.5455142  13.6162196  74.2964818
  14.6382671  14.9834782  76.1917061  13.9693046  15.4680910  75.7081101
  14.4995540  15.2304003  77.1060439  21.9156326  14.9660501  79.7763401
  21.7907466  14.1650241  79.2674347  22.5735418  15.4606695  79.2877371
  20.9837668  12.5622237  77.6047304  20.8362631  11.6338945  77.7854874
  21.8091162  12.5842328  77.1204379  24.5871790  13.3850796  78.6912176
  25.5118337  13.1793658  78.5536628  24.4187093  13.1367197  79.6001518
  24.3767106  13.9036464  74.0474268  24.5503984  13.3382886  73.2948120
  24.8695997  14.7037359  73.8653758  30.2306497   6.6672887  75.6664568
  30.6737643   5.9180212  75.2683691  29.3533008   6.6583023  75.2838300
  25.3642279  13.2203228  71.1471166  26.0593183  13.8409921  71.3658481
  25.7065429  12.3698579  71.4223544  27.2633702  10.6702934  72.6758497
  27.7885026  11.0090206  71.9507817  27.1756054   9.7349949  72.4921632
  18.9474363  16.7374917  77.0353750  18.5079353  16.2451296  77.7286607
  19.6982479  16.1947885  76.7945825  15.9561742  10.8316849  72.5834512
  16.1049862  11.5152314  71.9301185  16.7628185  10.8121939  73.0983968
  29.7739362   8.1378125  78.0587015  30.6086253   8.5767929  78.2224576
  29.9098491   7.6616778  77.2395261  19.4557147  13.3264980  70.0546260
  18.8831114  13.9455167  69.6016732  20.0289941  13.8764341  70.5886182
  22.6754407  13.6102130  71.1854842  23.6085080  13.5447692  71.3887718
  22.5877620  14.4458397  70.7269375  25.3042424  12.9268000  68.1458790
  25.2256055  12.5927864  69.0394548  26.1252090  13.4189768  68.1450262
  19.8403946   4.6625793  67.3962312  20.7863050   4.5332001  67.4650730
  19.4618191   3.9240454  67.8731740  33.8197165   6.8545746  80.4941145
  34.5500553   6.5931035  81.0548848  33.2104110   6.1174468  80.5343213
  23.7303162   0.4791321  73.6720748  22.8429017   0.7640972  73.4540943
  24.1457151   0.3185084  72.8248025  22.8746375  10.2435996  67.7668768
  23.5782225  10.4485998  68.3826424  22.1509024  10.8112758  68.0317851
  23.7044186   5.9945857  73.8871038  23.6479387   6.4514408  73.0478670
  24.2572528   5.2336541  73.7093881  27.5148992   1.7835589  74.7121158
  27.2585926   1.3832224  75.5429365  26.8901860   2.4979383  74.5871297
  31.8261329   4.5231662  77.2192449  31.2660887   4.5924851  77.9924011
  31.2204833   4.3472647  76.4991945  24.7833073  10.6818525  69.8167228
  25.6178677  10.2499723  69.6344703  24.6217416  10.5100539  70.7444122
  24.4378965   7.1850638  71.1823567  24.3827769   7.0194910  70.2412011
  23.8125020   7.8926671  71.3385757  17.6764654  15.3627638  78.8476642
  16.7260285  15.3629499  78.7341015  17.9797140  14.6160372  78.3312677
  33.4117348  21.1988176  79.9122405  34.0495758  21.0794923  79.2085745
  33.2938191  22.1469020  79.9710357  30.2207054  21.1515604  79.8483929
  29.8825566  21.0356669  78.9604464  31.0896822  20.7506769  79.8284936
  26.0793870  23.0051080  75.8380820  25.5158735  22.9141017  75.0697108
  25.9646265  22.1850985  76.3183313  30.7026837  22.3050456  85.8070135
  30.6915478  21.9103254  84.9350639  30.8647477  21.5716528  86.4003906
  23.6258302  24.5002272  78.6765041  24.4179594  24.1593097  78.2611340
  23.8654952  24.6097247  79.5967194  31.6593429  26.6722048  71.1495285
  31.0081408  27.2576129  70.7629299  32.4537791  27.2028243  71.2090323
  25.5849056  23.7611185  71.5482420  26.3579932  23.2140172  71.4095295
  25.9374455  24.6255435  71.7596881  27.4234098  25.0887568  84.7549319
  27.1323964  25.9933198  84.6395985  28.0591083  25.1304095  85.4693388
  28.3490305  22.4664416  81.3450679  28.9453877  22.2420438  80.6307641
  28.4065277  21.7249162  81.9476126  27.9215334  19.9203851  69.1800870
  28.1740854  19.3985373  68.4184333  26.9839893  19.7569997  69.2827553
  32.9658616  18.9239630  76.9875613  33.7521706  18.5059053  76.6366030
  33.2297321  19.8285722  77.1557261  33.1368694  24.3612480  71.6864270
  32.5014527  24.4347107  72.3985174  32.8066100  24.9506079  71.0083349
  38.3667043  18.8614863  77.8908591  39.0992215  18.2914080  78.1246421
  37.6106399  18.4736463  78.3315097  27.6411622  21.8231957  71.3825244
  27.5247880  21.1476861  72.0506329  27.7513882  21.3364331  70.5657398
  29.9843163  21.2842104  75.0871934  29.6201370  20.7572725  75.7984855
  30.8410279  20.8940574  74.9138419  35.8892464  12.5736437  82.3503200
  35.5575789  13.4431848  82.1264415  35.2938077  12.2572721  83.0297230
  29.6248650  16.3132004  70.0833282  29.7923053  17.1812241  70.4503753
  29.4345819  16.4759286  69.1594571  32.3823983  24.7748983  81.7499113
  32.0824706  25.6774022  81.6414920  32.0375043  24.5081166  82.6020265
  25.8336465  21.2262780  77.7835817  24.9086961  21.0938994  77.9913509
  26.0820878  22.0056999  78.2805759  35.7821127  17.2931523  79.4296550
  34.8738004  17.2246932  79.1355311  35.7308723  17.7703468  80.2578375
  29.6037871  18.7689662  71.0679949  29.4837496  19.2146712  71.9065429
  28.9090459  19.1174979  70.5093487  23.1945276  20.8696053  78.6179606
  23.3237657  21.1230532  79.5319018  22.5142727  21.4623761  78.2984261
  27.3644763  31.5393303  74.7170080  27.2868793  32.4901129  74.7958561
  26.7606407  31.1939176  75.3745007  37.6482774  15.4947962  81.2074424
  37.0057154  15.7880495  80.5614218  37.1437702  15.3800882  82.0127621
  35.3022937  19.2411135  71.8960283  36.2140793  19.4738522  71.7207981
  34.7932584  19.8248179  71.3335362  28.1108365  21.5206622  86.9349414
  28.8523050  22.0591666  86.6584238  27.4045351  22.1472911  87.0920966
  33.5863705  23.6635763  85.5321576  33.9947061  23.2218173  84.7876208
  32.8640966  23.0888390  85.7855769  29.9394775  18.6008369  82.9055133
  30.7855970  19.0247783  83.0489782  29.8793413  17.9441994  83.5993696
  33.9092519  24.2236953  79.2873865  33.2801382  24.3882667  78.5849932
  33.5218182  24.6378563  80.0584829  37.7881751  25.1591391  76.6418228
  37.1032790  25.5390293  76.0915262  37.8725601  25.7686718  77.3750176
  33.0894220  16.2612738  84.5636306  32.8455152  17.0154798  84.0270582
  33.3654151  16.6398085  85.3983553  35.0432683  22.8051350  83.2413572
  35.2549578  23.4483110  82.5647953  34.9962431  21.9713667  82.7735502
  32.6458912  15.4169171  80.1450144  31.7843391  15.7150424  80.4366882
  32.6721347  15.6339570  79.2131177  29.4620481  23.9611361  76.5523950
  29.9258827  24.2399064  75.7628572  29.1977279  23.0594806  76.3697040
  26.3544562  23.5082843  79.4903713  26.9245920  23.9370111  78.8521197
  26.9452674  23.2265428  80.1887899  28.3989367  20.0834514  73.3613515
  29.1013411  20.5355557  73.8287441  28.0669996  19.4418333  73.9893408
  22.1414701  18.3418066  78.6630648  21.3513755  18.5975595  78.1870759
  22.6325949  19.1566404  78.7682689  36.1578511  25.6823306  81.4135929
  36.9795955  25.2803493  81.1318611  36.1540914  25.5791540  82.3652045
  24.0929447  18.7062646  75.6214125  23.2960610  18.8181340  76.1397621
  23.8655039  19.0449298  74.7555016  29.9235114  25.2307349  83.5696640
  29.9879547  25.6927756  84.4054812  29.2146038  24.6004714  83.6978950
  20.4252404  18.5948557  81.0945639  20.6760443  19.4795567  81.3603215
  20.9611953  18.4153158  80.3220731  44.2484504  22.0262054  77.7620901
  43.4948212  21.4569452  77.6064905  44.3832045  21.9924719  78.7091535
  29.6383132  26.8975456  73.4375620  29.5028807  27.7426992  73.8660468
  30.1792945  27.0994734  72.6741554  23.0912529  24.4150894  74.0103545
  23.6037050  25.2094145  74.1609110  23.7435242  23.7177185  73.9437147
  24.9007414  27.5316651  76.0926298  25.0774042  28.4534615  75.9047282
  25.6964248  27.2175070  76.5220678  31.2651608  27.5199023  87.5675962
  30.8215463  26.7335401  87.2496867  31.9268822  27.7078173  86.9019853
  26.0238730  29.0494824  82.0936641  26.5746155  28.9211888  81.3213635
  25.1850206  29.3489714  81.7431533  33.3632846  27.8001823  85.5957363
  33.3451322  28.6210704  85.1037633  34.2852767  27.6755898  85.8207505
  29.8205901  25.3145952  86.4380872  30.3534237  24.5534240  86.2080180
  29.2919982  25.0219604  87.1805026  32.9875596  10.4206018  81.9674513
  32.6439865  11.3107660  81.8913624  33.3554558  10.2307676  81.1044099
  21.0561446  22.7439549  74.7863116  21.8936668  23.1536557  74.5696823
  21.2339714  21.8038991  74.7563310  32.9525878  20.4114629  70.4746949
  32.4372502  21.1819234  70.7135336  32.6803187  19.7379766  71.0980010
  30.5372989  15.2564330  75.5332187  29.6814586  14.8671181  75.3537826
  30.9499941  15.3356291  74.6731973  32.0672136  12.7910673  79.9323747
  31.5636932  12.7540809  79.1191552  32.3602743  13.7003416  79.9920403
  28.3115022  12.8749403  78.9389928  29.1768019  12.6792212  78.5795818
  28.3792531  12.6459755  79.8659285  37.9260152  23.1646984  72.4100122
  37.1489595  22.8258144  71.9655284  38.6051633  23.1699607  71.7355087
  32.7412182  18.2841721  72.3006730  32.4362317  18.5987871  73.1516873
  33.6942624  18.3623141  72.3434063  31.1858613  24.4431945  73.9499684
  30.6579975  23.7084704  73.6372921  30.6846116  25.2206621  73.7039652
  36.1651459  22.6380965  79.0666730  35.5075134  23.3280227  79.1546859
  36.9691859  23.0277397  79.4100716  25.9177341  15.1051611  76.3106295
  26.4921093  14.8826793  75.5779488  26.5048323  15.1740306  77.0634897
  34.9756918  20.9925338  77.1170672  35.4888800  21.6255330  77.6192382
  35.6258142  20.3926533  76.7514032  26.2446928  17.1356072  70.3302181
  25.4084240  17.4730759  70.6511455  26.1051698  17.0005052  69.3929318
  28.2200009  11.9792860  75.0381365  27.5664421  11.6641877  74.4137979
  28.1780483  11.3568600  75.7641188  29.3311214  22.2612155  66.9534657
  28.4238275  22.0301409  67.1525806  29.8282246  21.4649774  67.1408638
  32.2379292  30.9709662  69.8731343  31.5640991  31.2741359  70.4816301
  32.6245114  31.7738743  69.5236800  31.4537749  18.4674794  79.3629012
  30.5360310  18.6889741  79.2050700  31.8697893  18.5421104  78.5040720
  32.2372797  19.8666209  74.4931693  32.9844616  20.3787606  74.1838815
  32.5064386  19.5450262  75.3536086  30.5099447  22.3624750  71.4758647
  29.6010666  22.0783783  71.5731117  30.5394531  22.7823828  70.6161954
  35.7418714  25.9731339  75.2449814  35.2881041  25.1322249  75.3015005
  35.1112681  26.6092738  75.5824595  34.6851634  16.9023325  76.4750482
  33.9474391  16.3900712  76.8060724  34.9378407  16.4623707  75.6633759
  34.1851654  27.8107836  76.1799633  34.4774628  28.3712893  75.4611998
  34.6950274  28.1036397  76.9352792  34.7863261   9.6799577  77.0692251
  35.0922138   8.8196941  76.7818166  35.5115866  10.2717198  76.8691245
  21.0787617  20.0830264  75.4573849  20.8812017  19.4899625  74.7324916
  20.5234281  19.7782474  76.1749788  29.0584341  19.9753371  77.5768442
  29.1132951  19.0227207  77.5010919  28.2475543  20.1312810  78.0609741
  30.2075535  23.9033494  68.8146725  29.7694965  23.1869353  68.3552363
  30.9485976  24.1309608  68.2531817  26.9976701  18.5930430  75.3358821
  26.1844566  18.8924601  75.7424013  27.4935695  18.1986119  76.0533303
  29.1485279  28.5888187  77.2693086  29.1061458  28.8149034  76.3401618
  30.0647978  28.3551562  77.4178887  32.5950913  19.0572255  84.1673715
  32.9500300  19.2843728  85.0268181  33.2423044  19.3890632  83.5450970
  38.3248650  22.1790691  74.8723044  38.1866548  22.3692287  73.9444233
  37.9684868  22.9410073  75.3291095  26.4890776  16.1648786  80.9520056
  27.1290155  16.0237545  80.2543019  25.6568306  15.8783299  80.5758658
  38.3518029  24.2467218  79.8834316  38.7854536  24.1542507  80.7317370
  39.0649610  24.2224718  79.2454332  27.2651080  25.4651216  77.0655049
  28.0591678  24.9701536  76.8637623  26.5542772  24.9369079  76.7022754
  32.0845924  27.8469312  81.4167416  32.1382946  28.4160248  82.1845132
  31.2160705  28.0171197  81.0521453  23.5733843  19.6094298  73.1414801
  22.6431431  19.5478753  73.3584763  23.6691315  19.0870251  72.3451442
  23.4919392  16.1349111  75.7293043  23.7526209  17.0494444  75.6202203
  24.3136564  15.6673553  75.8789656  24.9644317  17.5486868  82.8991867
  25.6367371  17.3404230  82.2504516  24.1374104  17.3508954  82.4597100
  39.2133579  24.2890918  82.4167201  39.4069469  25.1936729  82.6626476
  39.1134197  23.8298337  83.2505786  34.2748687  24.4397661  87.9908082
  34.1234194  24.2108213  87.0738165  34.2653367  25.3968262  88.0039427
  31.0434024  22.0129574  82.9754348  31.9726084  22.1640733  82.8023315
  30.6225054  22.1013595  82.1202995  29.8422356  26.0380238  80.7452886
  29.7033441  25.6699023  81.6178824  29.0536952  26.5527878  80.5736843
  30.4370508  31.1389335  72.0878422  30.6122263  30.6677378  72.9024045
  29.7503296  31.7655101  72.3159683  31.3927571  25.4161841  78.1341723
  31.0577403  25.3762611  79.0299373  30.8931516  24.7506557  77.6612134
  25.3671815  20.8229471  83.6594305  25.2291613  20.0909710  84.2605844
  26.2776738  20.7338371  83.3778492  34.3286762  22.7617875  68.4078783
  33.7115933  22.0364703  68.3111836  33.8603251  23.5227236  68.0645857
  27.9954115  20.5349430  83.1477984  28.7053734  19.8942622  83.1064603
  27.9523424  20.7862325  84.0704165  35.9840894  27.4716784  86.0684563
  35.9253440  26.7876004  85.4015146  36.3860412  28.2135774  85.6165189
  25.0031593  34.2878697  78.8618282  25.2428191  34.9197222  79.5397301
  24.1600789  33.9366737  79.1483642  26.1185308  16.9803300  67.5300087
  25.2414775  16.8592100  67.1662334  26.5943061  16.1889378  67.2778976
  35.9858301  25.4356368  84.2998543  35.0985080  25.0982289  84.4224942
  36.5556852  24.7039399  84.5367308  17.6387448  21.7680459  77.6241594
  18.3258488  21.4542189  77.0362610  17.4835577  22.6721824  77.3508846
  22.4422171  16.6570656  82.0526618  22.3580359  16.0496325  81.3177028
  21.6204877  17.1479674  82.0536115  29.5159455  30.0957820  81.2659786
  29.4429626  30.9012791  81.7779091  29.0736848  30.2949786  80.4407808
  29.3049234  29.3329590  74.7762608  28.5216756  29.8751270  74.8700832
  30.0041980  29.8503570  75.1756849  32.6145884  15.1424219  77.4196813
  33.1114584  14.3894182  77.0997883  31.8432866  15.1788536  76.8540023
  40.4675642  20.8464585  79.0615105  40.4565518  21.7289300  78.6909038
  39.5993021  20.4936136  78.8669642  31.9758138  29.9944654  83.4217945
  32.6886110  30.6292119  83.3493846  31.4848167  30.0908520  82.6057947
  33.6975665  23.8995907  74.9935237  32.7631944  24.0197369  74.8239941
  33.8752334  22.9968373  74.7295246  29.1980853  17.2841602  77.1468498
  28.8278641  16.7312643  77.8349403  29.6939946  16.6799736  76.5943498
  37.0848216  19.7413226  75.5285271  37.5508669  20.5741217  75.4545573
  37.5355717  19.2758207  76.2330529  27.0270052  27.7439097  84.2423516
  27.7279511  28.3775580  84.3952910  26.5565167  28.0853829  83.4819155
  35.1524448  26.0857047  72.5271423  35.4284291  25.9713642  73.4365297
  34.2828946  25.6874532  72.4883596  35.0564879  12.1093813  79.5676172
  34.1427959  12.3398040  79.7358379  35.4857981  12.1932257  80.4190204
  34.8271338  20.2983705  82.0676066  34.1742788  20.5459612  81.4128519
  35.2051718  19.4847843  81.7338543  31.7878512  30.3343398  76.1704236
  31.9700906  29.5165054  76.6331989  32.6111498  30.5511090  75.7329126
  32.1220677  29.2611583  73.4319285  32.6508444  28.7504038  72.8189447
  32.3848897  28.9454113  74.2964818  22.6237770  27.2775452  81.1754618
  23.2091207  26.5319140  81.3082523  22.4262608  27.5879409  82.0591282
  25.4776425  30.3126700  76.1917061  24.8086800  30.7972827  75.7081101
  25.3389295  30.5595920  77.1060439  17.2155425  19.8481053  79.8959062
  17.2539524  19.3144643  80.6896180  16.7095717  19.3216258  79.2770039
  29.6181694  32.3470443  82.7899719  30.1700002  32.5102065  83.5548804
  29.9587887  32.9374881  82.1179744  34.4692568  27.1731701  88.6448374
  35.0132472  27.7861659  88.1503328  33.8879413  27.7311279  89.1615387
  20.8464002  18.5745155  72.9712993  21.1417443  17.6655833  72.9180047
  19.9452038  18.5532894  72.6493995  32.7550081  30.2952419  79.7763401
  32.6301220  29.4942159  79.2674347  33.4129172  30.7898612  79.2877371
  24.3758249  16.6501151  78.9540542  23.6544835  17.2637119  78.8148015
  25.1651505  17.1858916  78.8757188  34.8184989  28.0961439  81.4042951
  33.8715325  27.9766790  81.3321278  35.1667762  27.2083937  81.4869213
  22.5751844  16.2559252  73.0952318  22.2464550  15.3756631  72.9127424
  22.9291214  16.2006921  73.9828707  31.8231423  27.8914155  77.6047304
  31.6756385  26.9630863  77.7854874  32.6484916  27.9134246  77.1204379
  25.6893667  16.5432222  73.4627796  26.0289739  17.0718143  72.7406404
  26.1365787  16.8812628  74.2386362  35.4265544  28.7142714  78.6912176
  36.3512092  28.5085575  78.5536628  35.2580848  28.4659115  79.6001518
  28.3837108  14.9269273  82.9130864  28.0433928  14.1277086  83.3151544
  27.6776114  15.2270984  82.3407697  29.0353580  12.0118585  81.3658187
  29.8579649  11.5379064  81.2437077  29.2791643  12.7909069  81.8656873
  27.6761814  15.0406844  71.6621089  28.3970177  15.4188097  71.1584805
  27.0527118  15.7595721  71.7656067  31.8192937  15.7451993  72.5979421
  32.0356551  16.6276631  72.2968249  31.3387004  15.3538206  71.8685063
  26.5592158  18.7037706  79.1750166  26.4136739  19.0178009  80.0674447
  26.0817362  19.3222606  78.6221064  28.4188541  15.6940254  79.2231055
  28.4050110  14.7981347  78.8863353  29.1360969  15.7010918  79.8569341
  30.2714672  16.1277594  81.2684182  30.0132450  17.0494665  81.2668513
  29.7399712  15.7308029  81.9584647  35.2160861  29.2328381  74.0474268
  35.3897738  28.6674804  73.2948120  35.7089752  30.0329276  73.8653758
  21.0337820  21.2443050  82.1137827  20.4891289  22.0202858  82.2458101
  21.9117170  21.5913855  81.9556948  27.8225437  14.5754634  74.4918625
  27.9441348  13.6471280  74.6909513  27.5327479  14.5893320  73.5796941
  30.6916627  12.2609545  77.6285345  30.7138324  12.3248878  76.6737325
  31.1084687  11.4214053  77.8225851  41.0700252  21.9964804  75.6664568
  41.5131398  21.2472129  75.2683691  40.1926762  21.9874941  75.2838300
  36.2036033  28.5495146  71.1471166  36.8986938  29.1701838  71.3658481
  36.5459183  27.6990497  71.4223544  38.1027456  25.9994851  72.6758497
  38.6278780  26.3382124  71.9507817  38.0149809  25.0641867  72.4921632
  29.7647505  29.9128925  84.8048374  30.0734631  29.6678072  85.6771073
  30.5622987  30.1175563  84.3167244  29.7868117  32.0666835  77.0353750
  29.3473107  31.5743213  77.7286607  30.5376234  31.5239802  76.7945825
  22.2660456  28.2578375  77.0378378  23.0918476  27.9582147  76.6577022
  21.9154508  27.4885998  77.4868167  27.2341989  27.6104844  79.1076052
  26.6121998  26.9475549  78.8078280  27.9046856  27.6365976  78.4249700
  20.4669061  26.1764702  77.9967312  19.6300969  25.7486876  77.8151313
  20.4392706  26.3697145  78.9338103  37.7921362  26.6327755  87.9809695
  37.0016906  26.6151894  87.4414194  37.5554717  27.1716049  88.7358731
  37.9119237  23.4820221  85.2942423  37.9617242  23.3170229  86.2357946
  37.8033161  22.6147480  84.9040304  26.7955496  26.1608767  72.5834512
  26.9443616  26.8444231  71.9301185  27.6021940  26.1413857  73.0983968
  35.2023000  19.4651149  86.6101730  36.1032863  19.3257614  86.3185728
  35.2770974  19.6305604  87.5499908  39.4137434  25.9017163  85.5384445
  39.1222243  26.2647143  86.3747906  38.8009565  25.1884171  85.3597777
  40.6133117  23.4670043  78.0587015  41.4480008  23.9059847  78.2224576
  40.7492245  22.9908696  77.2395261  37.6624622  21.0249777  84.0064503
  38.1378744  21.2177424  83.1983354  36.7390188  21.0808963  83.7607887
  24.5508129  22.1873945  73.5895581  24.3054171  21.2836275  73.7875791
  24.7204044  22.1891095  72.6475059  32.2404839  13.0597621  82.9720337
  32.7586783  13.7958648  82.6466825  31.8859972  13.3661614  83.8067096
  23.8203777  17.9202302  71.0881743  23.1273022  17.9946657  70.4321779
  23.5755528  17.1562646  71.6103260  32.4917433   9.4797904  78.4921233
  32.7719187   8.8121093  79.1181660  33.2768040   9.6726999  77.9795897
  30.2950902  28.6556897  70.0546260  29.7224869  29.2747085  69.6016732
  30.8683695  29.2056259  70.5886182  36.3626291  17.9015538  82.2392809
  37.3143714  18.0013635  82.2605033  36.1929742  17.1093806  82.7490893
  34.3840671  14.9871121  82.4252209  33.7890603  15.2676133  81.7298698
  34.0990368  15.4765022  83.1968951  33.5148161  28.9394048  71.1854842
  34.4478835  28.8739609  71.3887718  33.4271374  29.7750314  70.7269375
  36.1436178  28.2559918  68.1458790  36.0649810  27.9219782  69.0394548
  36.9645845  28.7481686  68.1450262  38.8414369  21.1221657  81.3535108
  38.8090689  20.1837658  81.5394792  39.4514993  21.2005694  80.6200933
  30.6797700  19.9917710  67.3962312  31.6256805  19.8623918  67.4650730
  30.3011945  19.2532372  67.8731740  38.9908858  17.9132701  81.3993391
  38.4747906  17.1291157  81.2123320  39.8748806  17.5851417  81.5639911
  36.6519585  11.6573716  77.3589204  36.4544406  11.3488804  78.2432536
  37.2619290  12.3835355  77.4887134  44.6590919  22.1837664  80.4941145
  45.3894308  21.9222952  81.0548848  44.0497865  21.4466386  80.5343213
  42.7406216  20.3245527  81.0915596  42.0139380  20.1901492  80.4832088
  42.3253503  20.6322355  81.8972314  30.5636393  24.0435456  88.8562969
  31.4839402  24.2214055  89.0503016  30.5285976  23.0991502  88.7042668
  28.8640617  17.9167687  67.3317197  27.9572073  17.6200799  67.4079911
  29.1416598  17.6197505  66.4651484  19.7818558  19.2374050  77.7816244
  19.4621342  18.3839358  77.4890618  19.2351986  19.4522628  78.5374211
  23.5598465  21.9536491  81.4985750  23.7784475  22.8853599  81.5173784
  23.9724239  21.5944465  82.2840554  30.4802683  12.4604576  73.4861439
  29.6703411  12.1151661  73.8616685  31.1687100  12.1512120  74.0749050
  32.4093231  11.5382623  75.1085735  32.9624270  11.9578077  75.7675759
  32.6463318  10.6118371  75.1508691  27.6339402  14.7754622  67.4729177
  28.4958566  15.1009520  67.7324994  27.8189746  13.9886118  66.9602242
  19.6506818  22.8576961  79.7509365  18.9570289  22.4430914  79.2379320
  20.3979809  22.8997498  79.1542784  35.7872038  13.6483148  74.6164400
  35.2070707  14.3067952  74.2342452  35.5207971  12.8260493  74.2051817
  34.2375605  13.0488206  76.8185720  34.7375383  13.1604740  76.0100039
  34.8811213  12.7449259  77.4586528  21.5643560  22.7895215  77.6275380
  21.5414248  22.8882903  76.6757263  21.8744197  23.6360366  77.9492546
  24.2230938  24.8471370  81.7421995  25.1774192  24.8155313  81.6751926
  24.0243462  24.3861994  82.5572221  24.8130320  23.4172486  84.3092792
  25.6323209  23.9116565  84.3327630  25.0867128  22.5004454  84.2810360
  34.5696916  15.8083239  73.6720748  33.6822771  16.0932889  73.4540943
  34.9850905  15.6477002  72.8248025  37.9211453  15.8329760  77.3875087
  38.6971843  16.3226212  77.6599704  37.1959587  16.2587814  77.8446957
  40.3584011  16.5457379  78.4449028  40.9528502  16.3053115  77.7342336
  40.4310595  15.8264509  79.0722564  22.5781167  30.3890990  78.7592193
  22.4435635  29.6291391  78.1930191  22.1613229  31.1131890  78.2920982
  33.7140130  25.5727913  67.7668768  34.4175980  25.7777916  68.3826424
  32.9902779  26.1404675  68.0317851  34.5437940  21.3237775  73.8871038
  34.4873142  21.7806326  73.0478670  35.0966283  20.5628459  73.7093881
  38.3542746  17.1127506  74.7121158  38.0979680  16.7124142  75.5429365
  37.7295614  17.8271300  74.5871297  42.6655084  19.8523580  77.2192449
  42.1054642  19.9216769  77.9924011  42.0598587  19.6764564  76.4991945
  25.7350293  31.2860307  78.9710635  25.6182677  32.2305739  78.8689326
  24.9142739  30.9833868  79.3596434  35.6226827  26.0110443  69.8167228
  36.4572431  25.5791641  69.6344703  35.4611170  25.8392456  70.7444122
  35.2772719  22.5142556  71.1823567  35.2221523  22.3486827  70.2412011
  34.6518775  23.2218589  71.3385757  32.5918627  24.8191468  90.5077130
  33.4609786  24.9932120  90.1463765  32.1125378  25.6385885  90.3852859
  28.5868845  12.0150665  70.7608886  28.5747515  12.9592505  70.9177157
  29.4792267  11.8320810  70.4668347  26.7604807  31.9388569  82.1866564
  27.6632054  31.9712179  82.5033059  26.5342177  31.0089020  82.2012899
  28.5158409  30.6919555  78.8476642  27.5654040  30.6921417  78.7341015
  28.8190895  29.9452290  78.3312677  32.4020964   8.6093441  75.0154822
  31.6353360   8.0551928  75.1611505  32.8131669   8.6815310  75.8768974
  44.2511102  36.5280094  79.9122405  44.8889512  36.4086841  79.2085745
  44.1331945  37.4760938  79.9710357  41.0600809  36.4807522  79.8483929
  40.7219320  36.3648586  78.9604464  41.9290577  36.0798687  79.8284936
  36.9187624  38.3342998  75.8380820  36.3552489  38.2432935  75.0697108
  36.8040019  37.5142903  76.3183313  41.5420592  37.6342373  85.8070135
  41.5309232  37.2395172  84.9350639  41.7041231  36.9008446  86.4003906
  36.4242810  39.0903103  71.5482420  37.1973686  38.5432090  71.4095295
  36.7768209  39.9547352  71.7596881  38.2627853  40.4179485  84.7549319
  37.9717719  41.3225116  84.6395985  38.8984837  40.4596013  85.4693388
  39.1884060  37.7956334  81.3450679  39.7847632  37.5712356  80.6307641
  39.2459031  37.0541079  81.9476126  38.7609088  35.2495769  69.1800870
  39.0134609  34.7277290  68.4184333  37.8233647  35.0861915  69.2827553
  43.8052371  34.2531547  76.9875613  44.5915460  33.8350971  76.6366030
  44.0691075  35.1577640  77.1557261  49.2060798  34.1906781  77.8908591
  49.9385970  33.6205997  78.1246421  48.4500154  33.8028381  78.3315097
  38.4805377  37.1523875  71.3825244  38.3641635  36.4768778  72.0506329
  38.5907637  36.6656249  70.5657398  40.8236918  36.6134022  75.0871934
  40.4595125  36.0864643  75.7984855  41.6804034  36.2232491  74.9138419
  46.7286218  27.9028355  82.3503200  46.3969543  28.7723766  82.1264415
  46.1331832  27.5864639  83.0297230  40.4642405  31.6423922  70.0833282
  40.6316807  32.5104158  70.4503753  40.2739574  31.8051204  69.1594571
  36.6730219  36.5554698  77.7835817  35.7480716  36.4230912  77.9913509
  36.9214633  37.3348917  78.2805759  46.6214882  32.6223441  79.4296550
  45.7131759  32.5538849  79.1355311  46.5702477  33.0995386  80.2578375
  40.4431626  34.0981579  71.0679949  40.3231251  34.5438630  71.9065429
  39.7484214  34.4466897  70.5093487  34.0339030  36.1987971  78.6179606
  34.1631412  36.4522450  79.5319018  33.3536482  36.7915679  78.2984261
  40.6955747  34.0413087  87.3731447  39.9189081  34.6007007  87.3634312
  41.3346310  34.5269870  87.8946317  48.4876528  30.8239879  81.2074424
  47.8450908  31.1172413  80.5614218  47.9831457  30.7092800  82.0127621
  46.1416692  34.5703053  71.8960283  47.0534548  34.8030439  71.7207981
  45.6326339  35.1540097  71.3335362  38.9502120  36.8498540  86.9349414
  39.6916804  37.3883584  86.6584238  38.2439105  37.4764829  87.0920966
  44.4257459  38.9927680  85.5321576  44.8340815  38.5510091  84.7876208
  43.7034721  38.4180308  85.7855769  40.7788529  33.9300287  82.9055133
  41.6249725  34.3539701  83.0489782  40.7187167  33.2733911  83.5993696
  43.9287975  31.5904655  84.5636306  43.6848907  32.3446716  84.0270582
  44.2047905  31.9690003  85.3983553  45.8826437  38.1343268  83.2413572
  46.0943333  38.7775028  82.5647953  45.8356186  37.3005584  82.7735502
  43.4852666  30.7461089  80.1450144  42.6237145  31.0442342  80.4366882
  43.5115101  30.9631487  79.2131177  39.2383122  35.4126431  73.3613515
  39.9407165  35.8647475  73.8287441  38.9063750  34.7710250  73.9893408
  37.6863483  34.0038188  87.7364724  37.0562144  34.6854469  87.9700121
  37.5799571  33.8921270  86.7917862  32.9808456  33.6709984  78.6630648
  32.1907510  33.9267513  78.1870759  33.4719703  34.4858322  78.7682689
  34.9323201  34.0354563  75.6214125  34.1354365  34.1473258  76.1397621
  34.7048793  34.3741216  74.7555016  40.7628869  40.5599267  83.5696640
  40.8273301  41.0219674  84.4054812  40.0539793  39.9296632  83.6978950
  31.2646159  33.9240475  81.0945639  31.5154197  34.8087484  81.3603215
  31.8005707  33.7445076  80.3220731  55.0878258  37.3553972  77.7620901
  54.3341967  36.7861370  77.6064905  55.2225800  37.3216636  78.7091535
  36.9644226  28.3058954  90.0989975  36.5711172  27.7525152  90.7737619
  37.7810366  28.6169532  90.4896493  33.9306284  39.7442812  74.0103545
  34.4430804  40.5386062  74.1609110  34.5828997  39.0469103  73.9437147
  39.8812187  29.7216833  87.6910232  40.6221901  30.3223986  87.6114694
  40.1130110  28.9794471  87.1328274  35.0253525  34.9073200  85.9688461
  34.9107040  34.0058458  86.2695560  34.1698043  35.1536897  85.6173278
  44.2026601  43.1293741  85.5957363  44.1845076  43.9502622  85.1037633
  45.1246521  43.0047816  85.8207505  40.6599655  40.6437870  86.4380872
  41.1927992  39.8826158  86.2080180  40.1313736  40.3511522  87.1805026
  43.8269350  25.7497936  81.9674513  43.4833619  26.6399578  81.8913624
  44.1948313  25.5599594  81.1044099  31.8955201  38.0731466  74.7863116
  32.7330423  38.4828475  74.5696823  32.0733468  37.1330909  74.7563310
  43.7919633  35.7406547  70.4746949  43.2766256  36.5111152  70.7135336
  43.5196941  35.0671683  71.0980010  41.3766744  30.5856248  75.5332187
  40.5208340  30.1963098  75.3537826  41.7893696  30.6648209  74.6731973
  42.9065890  28.1202591  79.9323747  42.4030686  28.0832726  79.1191552
  43.1996497  29.0295334  79.9920403  39.1508776  28.2041321  78.9389928
  40.0161773  28.0084130  78.5795818  39.2186285  27.9751673  79.8659285
  48.7653907  38.4938902  72.4100122  47.9883350  38.1550061  71.9655284
  49.4445388  38.4991525  71.7355087  43.5805936  33.6133639  72.3006730
  43.2756072  33.9279788  73.1516873  44.5336378  33.6915059  72.3434063
  42.0252368  39.7723862  73.9499684  41.4973729  39.0376622  73.6372921
  41.5239871  40.5498539  73.7039652  47.0045214  37.9672883  79.0666730
  46.3468888  38.6572144  79.1546859  47.8085613  38.3569315  79.4100716
  36.7571095  30.4343529  76.3106295  37.3314847  30.2118710  75.5779488
  37.3442078  30.5032223  77.0634897  45.8150673  36.3217256  77.1170672
  46.3282554  36.9547247  77.6192382  46.4651897  35.7218451  76.7514032
  37.0840683  32.4647990  70.3302181  36.2477995  32.8022676  70.6511455
  36.9445452  32.3296970  69.3929318  39.0593763  27.3084778  75.0381365
  38.4058176  26.9933795  74.4137979  39.0174237  26.6860518  75.7641188
  40.1704968  37.5904073  66.9534657  39.2632030  37.3593326  67.1525806
  40.6676000  36.7941692  67.1408638  42.2931504  33.7966711  79.3629012
  41.3754065  34.0181658  79.2050700  42.7091647  33.8713022  78.5040720
  43.0766551  35.1958127  74.4931693  43.8238370  35.7079524  74.1838815
  43.3458141  34.8742180  75.3536086  41.3493201  37.6916668  71.4758647
  40.4404421  37.4075700  71.5731117  41.3788285  38.1115746  70.6161954
  45.5245388  32.2315243  76.4750482  44.7868145  31.7192629  76.8060724
  45.7772162  31.7915625  75.6633759  45.6257016  25.0091495  77.0692251
  45.9315893  24.1488859  76.7818166  46.3509621  25.6009115  76.8691245
  31.9181372  35.4122182  75.4573849  31.7205772  34.8191542  74.7324916
  31.3628036  35.1074392  76.1749788  39.8978096  35.3045288  77.5768442
  39.9526705  34.3519125  77.5010919  39.0869298  35.4604727  78.0609741
  41.0469289  39.2325411  68.8146725  40.6088719  38.5161270  68.3552363
  41.7879730  39.4601526  68.2531817  37.8370455  33.9222348  75.3358821
  37.0238321  34.2216519  75.7424013  38.3329450  33.5278037  76.0533303
  43.4344667  34.3864172  84.1673715  43.7894055  34.6135646  85.0268181
  44.0816798  34.7182549  83.5450970  49.1642404  37.5082608  74.8723044
  49.0260303  37.6984204  73.9444233  48.8078623  38.2701991  75.3291095
  37.3284530  31.4940703  80.9520056  37.9683910  31.3529463  80.2543019
  36.4962061  31.2075217  80.5758658  49.1911784  39.5759135  79.8834316
  49.6248290  39.4834424  80.7317370  49.9043364  39.5516636  79.2454332
  34.4127598  34.9386216  73.1414801  33.4825186  34.8770671  73.3584763
  34.5085070  34.4162168  72.3451442  34.3313147  31.4641028  75.7293043
  34.5919964  32.3786362  75.6202203  35.1530319  30.9965471  75.8789656
  35.8038072  32.8778786  82.8991867  36.4761125  32.6696148  82.2504516
  34.9767858  32.6800872  82.4597100  50.0527333  39.6182836  82.4167201
  50.2463223  40.5228646  82.6626476  49.9527951  39.1590255  83.2505786
  41.7063644  29.5040727  84.9157528  41.0591559  30.2030676  84.8222005
  42.4764659  29.9376870  85.2833776  45.1142442  39.7689579  87.9908082
  44.9627948  39.5400130  87.0738165  45.1047121  40.7260180  88.0039427
  41.8827778  37.3421491  82.9754348  42.8119838  37.4932651  82.8023315
  41.4618808  37.4305512  82.1202995  36.2065569  36.1521389  83.6594305
  36.0685367  35.4201627  84.2605844  37.1170493  36.0630289  83.3778492
  45.1680517  38.0909793  68.4078783  44.5509688  37.3656621  68.3111836
  44.6997005  38.8519153  68.0645857  38.8347870  35.8641348  83.1477984
  39.5447488  35.2234540  83.1064603  38.7917178  36.1154243  84.0704165
  46.8234649  42.8008701  86.0684563  46.7647195  42.1167921  85.4015146
  47.2254167  43.5427691  85.6165189  37.5476804  32.8506566  84.9673624
  37.0114161  32.3997304  85.6195220  36.9593512  32.9852475  84.2244088
  36.9579063  32.3095217  67.5300087  36.0808529  32.1884018  67.1662334
  37.4336816  31.5181296  67.2778976  46.8252056  40.7648285  84.2998543
  45.9378835  40.4274207  84.4224942  47.3950607  40.0331316  84.5367308
  28.4781203  37.0972377  77.6241594  29.1652243  36.7834107  77.0362610
  28.3229332  38.0013742  77.3508846  33.2815925  31.9862574  82.0526618
  33.1974114  31.3788243  81.3177028  32.4598631  32.4771592  82.0536115
  43.4539639  30.4716137  77.4196813  43.9508338  29.7186099  77.0997883
  42.6826620  30.5080454  76.8540023  51.3069396  36.1756503  79.0615105
  51.2959273  37.0581218  78.6909038  50.4386776  35.8228053  78.8669642
  40.0374608  32.6133520  77.1468498  39.6672395  32.0604560  77.8349403
  40.5333700  32.0091654  76.5943498  47.9241971  35.0705144  75.5285271
  48.3902423  35.9033135  75.4545573  48.3749471  34.6050125  76.2330529
  45.8958634  27.4385731  79.5676172  44.9821714  27.6689957  79.7358379
  46.3251735  27.5224175  80.4190204  45.6665092  35.6275623  82.0676066
  45.0136542  35.8751530  81.4128519  46.0445472  34.8139761  81.7338543
  41.7152665  36.3695434  88.5542103  41.0393302  36.2689563  89.2244478
  42.5380299  36.2134647  89.0178100  28.0549179  35.1772970  79.8959062
  28.0933279  34.6436561  80.6896180  27.5489472  34.6508176  79.2770039
  35.4339941  30.0237511  83.3921604  35.4981268  30.8852342  82.9799002
  35.3707062  29.4111512  82.6593962  34.9092214  32.0960643  87.0394638
  35.5364253  31.7137721  87.6532162  34.0520133  31.8774845  87.4050331
  45.3086322  42.5023619  88.6448374  45.8526226  43.1153577  88.1503328
  44.7273167  43.0603197  89.1615387  31.6857757  33.9037072  72.9712993
  31.9811198  32.9947751  72.9180047  30.7845792  33.8824812  72.6493995
  35.2152004  31.9793069  78.9540542  34.4938589  32.5929037  78.8148015
  36.0045259  32.5150834  78.8757188  38.0178317  29.3147496  85.2281193
  38.5412719  29.5609792  85.9907503  37.7990650  30.1467530  84.8084331
  33.4145598  31.5851170  73.0952318  33.0858304  30.7048549  72.9127424
  33.7684969  31.5298839  73.9828707  36.5287421  31.8724140  73.4627796
  36.8683494  32.4010061  72.7406404  36.9759542  32.2104546  74.2386362
  39.2230862  30.2561191  82.9130864  38.8827683  29.4569004  83.3151544
  38.5169868  30.5562901  82.3407697  39.8747334  27.3410503  81.3658187
  40.6973403  26.8670981  81.2437077  40.1185398  28.1200987  81.8656873
  38.5155569  30.3698762  71.6621089  39.2363931  30.7480014  71.1584805
  37.8920873  31.0887638  71.7656067  42.6586691  31.0743910  72.5979421
  42.8750306  31.9568548  72.2968249  42.1780759  30.6830124  71.8685063
  37.3985913  34.0329624  79.1750166  37.2530493  34.3469927  80.0674447
  36.9211116  34.6514524  78.6221064  39.2582296  31.0232172  79.2231055
  39.2443864  30.1273265  78.8863353  39.9754724  31.0302835  79.8569341
  41.1108426  31.4569512  81.2684182  40.8526204  32.3786583  81.2668513
  40.5793467  31.0599946  81.9584647  31.8731575  36.5734968  82.1137827
  31.3285043  37.3494776  82.2458101  32.7510925  36.9205773  81.9556948
  38.6619192  29.9046552  74.4918625  38.7835103  28.9763198  74.6909513
  38.3721234  29.9185238  73.5796941  41.5310382  27.5901462  77.6285345
  41.5532079  27.6540795  76.6737325  41.9478441  26.7505971  77.8225851
  51.9094006  37.3256722  75.6664568  52.3525152  36.5764047  75.2683691
  51.0320517  37.3166858  75.2838300  32.6597597  35.7004864  85.0067984
  31.9179333  35.8487500  85.5932614  32.3390341  35.9613130  84.1434733
  31.3062816  41.5056620  77.9967312  30.4694724  41.0778794  77.8151313
  31.2786461  41.6989063  78.9338103  38.1460271  31.4178549  88.7008558
  38.1948427  32.2940672  88.3186327  38.6882785  30.8755942  88.1280201
  48.6315117  41.9619673  87.9809695  47.8410661  41.9443811  87.4414194
  48.3948471  42.5007966  88.7358731  48.7512992  38.8112139  85.2942423
  48.8010997  38.6462146  86.2357946  48.6426915  37.9439398  84.9040304
  37.6349251  41.4900685  72.5834512  37.7837371  42.1736149  71.9301185
  38.4415694  41.4705775  73.0983968  46.0416754  34.7943067  86.6101730
  46.9426617  34.6549532  86.3185728  46.1164729  34.9597522  87.5499908
  40.3759560  32.1709922  85.4554916  39.5062869  32.4643488  85.1837505
  40.6119040  32.7550367  86.1762180  50.2531189  41.2309080  85.5384445
  49.9615997  41.5939061  86.3747906  49.6403320  40.5176089  85.3597777
  51.4526871  38.7961960  78.0587015  52.2873762  39.2351764  78.2224576
  51.5886000  38.3200613  77.2395261  48.5018377  36.3541695  84.0064503
  48.9772499  36.5469341  83.1983354  47.5783942  36.4100881  83.7607887
  35.3901884  37.5165862  73.5895581  35.1447925  36.6128192  73.7875791
  35.5597798  37.5183013  72.6475059  43.0798593  28.3889539  82.9720337
  43.5980537  29.1250566  82.6466825  42.7253726  28.6953532  83.8067096
  34.6597531  33.2494220  71.0881743  33.9666776  33.3238575  70.4321779
  34.4149283  32.4854564  71.6103260  43.3311188  24.8089821  78.4921233
  43.6112941  24.1413010  79.1181660  44.1161795  25.0018917  77.9795897
  47.2020046  33.2307455  82.2392809  48.1537469  33.3305553  82.2605033
  47.0323496  32.4385724  82.7490893  45.2234425  30.3163038  82.4252209
  44.6284358  30.5968051  81.7298698  44.9384122  30.8056939  83.1968951
  49.6808124  36.4513575  81.3535108  49.6484444  35.5129576  81.5394792
  50.2908747  36.5297612  80.6200933  41.5191455  35.3209628  67.3962312
  42.4650559  35.1915836  67.4650730  41.1405700  34.5824290  67.8731740
  49.8302612  33.2424618  81.3993391  49.3141661  32.4583075  81.2123320
  50.7142561  32.9143335  81.5639911  47.4913339  26.9865634  77.3589204
  47.2938160  26.6780722  78.2432536  48.1013045  27.7127273  77.4887134
  55.4984674  37.5129582  80.4941145  56.2288062  37.2514870  81.0548848
  54.8891619  36.7758304  80.5343213  53.5799971  35.6537444  81.0915596
  52.8533134  35.5193409  80.4832088  53.1647258  35.9614273  81.8972314
  41.4030147  39.3727374  88.8562969  42.3233157  39.5505973  89.0503016
  41.3679730  38.4283419  88.7042668  39.7034372  33.2459604  67.3317197
  38.7965827  32.9492717  67.4079911  39.9810353  32.9489422  66.4651484
  30.6212312  34.5665968  77.7816244  30.3015096  33.7131276  77.4890618
  30.0745740  34.7814546  78.5374211  34.3992220  37.2828409  81.4985750
  34.6178229  38.2145516  81.5173784  34.8117993  36.9236383  82.2840554
  41.3196437  27.7896494  73.4861439  40.5097166  27.4443579  73.8616685
  42.0080854  27.4804038  74.0749050  43.2486986  26.8674541  75.1085735
  43.8018024  27.2869994  75.7675759  43.4857072  25.9410289  75.1508691
  39.2720085  32.8561614  90.8888499  39.1716812  33.8055971  90.8200590
  39.0541627  32.5279853  90.0164569  38.4733156  30.1046539  67.4729177
  39.3352320  30.4301438  67.7324994  38.6583501  29.3178035  66.9602242
  30.4900572  38.1868879  79.7509365  29.7964044  37.7722832  79.2379320
  31.2373563  38.2289416  79.1542784  46.6265793  28.9775066  74.6164400
  46.0464462  29.6359870  74.2342452  46.3601726  28.1552411  74.2051817
  45.0769359  28.3780124  76.8185720  45.5769138  28.4896658  76.0100039
  45.7204967  28.0741176  77.4586528  39.1351355  36.2858753  89.7053561
  38.6518437  37.0859113  89.9117450  39.2212294  36.2966698  88.7521005
  32.4037315  38.1187133  77.6275380  32.3808003  38.2174820  76.6757263
  32.7137951  38.9652284  77.9492546  35.0624693  40.1763288  81.7421995
  36.0167946  40.1447230  81.6751926  34.8637216  39.7153912  82.5572221
  35.6524075  38.7464404  84.3092792  36.4716964  39.2408483  84.3327630
  35.9260882  37.8296372  84.2810360  45.4090671  31.1375156  73.6720748
  44.5216526  31.4224807  73.4540943  45.8244660  30.9768920  72.8248025
  48.7605207  31.1621677  77.3875087  49.5365597  31.6518130  77.6599704
  48.0353341  31.5879731  77.8446957  51.1977766  31.8749297  78.4449028
  51.7922256  31.6345032  77.7342336  51.2704349  31.1556427  79.0722564
  44.5533884  40.9019831  67.7668768  45.2569734  41.1069833  68.3826424
  43.8296533  41.4696593  68.0317851  45.3831695  36.6529692  73.8871038
  45.3266896  37.1098244  73.0478670  45.9360037  35.8920377  73.7093881
  49.1936501  32.4419424  74.7121158  48.9373435  32.0416060  75.5429365
  48.5689369  33.1563218  74.5871297  53.5048838  35.1815497  77.2192449
  52.9448396  35.2508687  77.9924011  52.8992342  35.0056482  76.4991945
  46.1166474  37.8434473  71.1823567  46.0615278  37.6778745  70.2412011
  45.4912529  38.5510506  71.3385757  30.9058989  33.0802538  85.0084989
  31.5517852  32.5701492  85.4972215  30.6976140  33.8171220  85.5828415
  43.4312381  40.1483385  90.5077130  44.3003541  40.3224038  90.1463765
  42.9519133  40.9677802  90.3852859  39.4262599  27.3442582  70.7608886
  39.4141269  28.2884422  70.9177157  40.3186021  27.1612728  70.4668347
  43.2414719  23.9385359  75.0154822  42.4747115  23.3843846  75.1611505
  43.6525424  24.0107228  75.8768974  35.2456480  30.2270155  89.1060004
  36.1087941  29.8706960  89.3163328  34.6721891  29.8884050  89.7935408
  60.0454552  49.5198698  77.8908591  60.7779724  48.9497915  78.1246421
  59.2893908  49.1320299  78.3315097  57.5679973  43.2320272  82.3503200
  57.2363298  44.1015683  82.1264415  56.9725586  42.9156556  83.0297230
  57.4608636  47.9515359  79.4296550  56.5525513  47.8830767  79.1355311
  57.4096232  48.4287304  80.2578375  59.3270283  46.1531797  81.2074424
  58.6844663  46.4464330  80.5614218  58.8225211  46.0384717  82.0127621
  65.9272013  52.6845889  77.7620901  65.1735721  52.1153288  77.6064905
  66.0619554  52.6508554  78.7091535  47.8037981  43.6350872  90.0989975
  47.4104926  43.0817070  90.7737619  48.6204121  43.9461450  90.4896493
  54.6663105  41.0789854  81.9674513  54.3227374  41.9691495  81.8913624
  55.0342067  40.8891511  81.1044099  53.7459645  43.4494509  79.9323747
  53.2424441  43.4124644  79.1191552  54.0390252  44.3587252  79.9920403
  56.4650770  40.3383413  77.0692251  56.7709647  39.4780776  76.7818166
  57.1903375  40.9301033  76.8691245  52.5457398  44.8332644  84.9157528
  51.8985313  45.5322594  84.8222005  53.3158414  45.2668788  85.2833776
  58.7635725  50.3997061  75.5285271  59.2296178  51.2325053  75.4545573
  59.2143226  49.9342043  76.2330529  56.7352388  42.7677648  79.5676172
  55.8215468  42.9981875  79.7358379  57.1645490  42.8516092  80.4190204
  50.7141089  42.6702421  81.3658187  51.5367158  42.1962899  81.2437077
  50.9579152  43.4492905  81.8656873  52.3704136  42.9193380  77.6285345
  52.3925833  42.9832713  76.6737325  52.7872195  42.0797889  77.8225851
  53.9192348  43.7181456  82.9720337  54.4374292  44.4542483  82.6466825
  53.5647481  44.0245450  83.8067096  54.1704942  40.1381739  78.4921233
  54.4506696  39.4704928  79.1181660  54.9555549  40.3310834  77.9795897
  60.6696367  48.5716536  81.3993391  60.1535415  47.7874993  81.2123320
  61.5536315  48.2435253  81.5639911  58.3307094  42.3157552  77.3589204
  58.1331915  42.0072640  78.2432536  58.9406799  43.0419190  77.4887134
  66.3378428  52.8421499  80.4941145  67.0681817  52.5806788  81.0548848
  65.7285374  52.1050221  80.5343213  64.4193725  50.9829362  81.0915596
  63.6926889  50.8485327  80.4832088  64.0041012  51.2906191  81.8972314
  57.4659547  44.3066984  74.6164400  56.8858216  44.9651788  74.2342452
  57.1995480  43.4844328  74.2051817  55.9163114  43.7072041  76.8185720
  56.4162892  43.8188576  76.0100039  56.5598722  43.4033094  77.4586528
  59.5998961  46.4913595  77.3875087  60.3759352  46.9810047  77.6599704
  58.8747096  46.9171649  77.8446957  62.0371520  47.2041214  78.4449028
  62.6316011  46.9636950  77.7342336  62.1098104  46.4848345  79.0722564
  60.0330255  47.7711342  74.7121158  59.7767189  47.3707977  75.5429365
  59.4083123  48.4855136  74.5871297  64.3442593  50.5107415  77.2192449
  63.7842151  50.5800604  77.9924011  63.7386096  50.3348400  76.4991945
  54.0808473  39.2677277  75.0154822  53.3140869  38.7135764  75.1611505
  54.4919178  39.3399146  75.8768974  46.0850234  45.5562073  89.1060004
  46.9481696  45.1998877  89.3163328  45.5115645  45.2175967  89.7935408
  65.9298611  67.1863929  79.9122405  66.5677021  67.0670676  79.2085745
  65.8119454  68.1344773  79.9710357  64.1774692  72.6597801  71.1495285
  63.5262672  73.2451882  70.7629299  64.9719055  73.1903996  71.2090323
  58.1030319  69.7486938  71.5482420  58.8761195  69.2015925  71.4095295
  58.4555718  70.6131188  71.7596881  59.9415362  71.0763321  84.7549319
  59.6505228  71.9808951  84.6395985  60.5772346  71.1179848  85.4693388
  60.4396597  65.9079604  69.1800870  60.6922118  65.3861126  68.4184333
  59.5021156  65.7445750  69.2827553  65.4839880  64.9115383  76.9875613
  66.2702969  64.4934806  76.6366030  65.7478584  65.8161475  77.1557261
  65.6549957  70.3488233  71.6864270  65.0195790  70.4222860  72.3985174
  65.3247364  70.9381832  71.0083349  70.8848307  64.8490616  77.8908591
  71.6173479  64.2789833  78.1246421  70.1287663  64.4612216  78.3315097
  60.1592886  67.8107710  71.3825244  60.0429144  67.1352614  72.0506329
  60.2695146  67.3240084  70.5657398  62.5024427  67.2717858  75.0871934
  62.1382634  66.7448478  75.7984855  63.3591543  66.8816327  74.9138419
  68.4073727  58.5612190  82.3503200  68.0757052  59.4307601  82.1264415
  67.8119341  58.2448474  83.0297230  64.9005247  70.7624736  81.7499113
  64.6005970  71.6649775  81.6414920  64.5556306  70.4956919  82.6020265
  68.3002391  63.2807276  79.4296550  67.3919268  63.2122685  79.1355311
  68.2489986  63.7579221  80.2578375  62.1219134  64.7565415  71.0679949
  62.0018760  65.2022465  71.9065429  61.4271723  65.1050732  70.5093487
  59.8826027  77.5269056  74.7170080  59.8050056  78.4776882  74.7958561
  59.2787670  77.1814929  75.3745007  70.1664037  61.4823715  81.2074424
  69.5238417  61.7756248  80.5614218  69.6618966  61.3676635  82.0127621
  67.8204201  65.2286888  71.8960283  68.7322057  65.4614275  71.7207981
  67.3113848  65.8123932  71.3335362  66.1044968  69.6511516  85.5321576
  66.5128324  69.2093926  84.7876208  65.3822230  69.0764143  85.7855769
  66.4273783  70.2112706  79.2873865  65.7982645  70.3758420  78.5849932
  66.0399445  70.6254316  80.0584829  70.3063015  71.1467144  76.6418228
  69.6214053  71.5266046  76.0915262  70.3906864  71.7562471  77.3750176
  65.6075484  62.2488491  84.5636306  65.3636416  63.0030551  84.0270582
  65.8835414  62.6273838  85.3983553  67.5613946  68.7927103  83.2413572
  67.7730842  69.4358863  82.5647953  67.5143695  67.9589420  82.7735502
  65.1640175  61.4044924  80.1450144  64.3024654  61.7026177  80.4366882
  65.1902610  61.6215323  79.2131177  60.9170631  66.0710267  73.3613515
  61.6194674  66.5231310  73.8287441  60.5851259  65.4294086  73.9893408
  68.6759774  71.6699059  81.4135929  69.4977218  71.2679246  81.1318611
  68.6722177  71.5667293  82.3652045  62.4416378  71.2183102  83.5696640
  62.5060810  71.6803509  84.4054812  61.7327302  70.5880467  83.6978950
  76.7665767  68.0137807  77.7620901  76.0129476  67.4445205  77.6064905
  76.9013309  67.9800472  78.7091535  62.1564396  72.8851209  73.4375620
  62.0210070  73.7302745  73.8660468  62.6974208  73.0870487  72.6741554
  57.4188678  73.5192404  76.0926298  57.5955306  74.4410368  75.9047282
  58.2145511  73.2050823  76.5220678  61.5599696  60.3800668  87.6910232
  62.3009410  60.9807821  87.6114694  61.7917619  59.6378306  87.1328274
  63.7832872  73.5074776  87.5675962  63.3396726  72.7211154  87.2496867
  64.4450085  73.6953926  86.9019853  58.5419993  75.0370578  82.0936641
  59.0927418  74.9087641  81.3213635  57.7031469  75.3365467  81.7431533
  65.8814110  73.7877576  85.5957363  65.8632585  74.6086457  85.1037633
  66.8034030  73.6631651  85.8207505  62.3387164  71.3021705  86.4380872
  62.8715501  70.5409994  86.2080180  61.8101245  71.0095357  87.1805026
  65.5056859  56.4081771  81.9674513  65.1621128  57.2983413  81.8913624
  65.8735822  56.2183429  81.1044099  65.4707142  66.3990382  70.4746949
  64.9553765  67.1694987  70.7135336  65.1984450  65.7255519  71.0980010
  63.0554253  61.2440083  75.5332187  62.1995849  60.8546934  75.3537826
  63.4681205  61.3232044  74.6731973  70.4441416  69.1522737  72.4100122
  69.6670859  68.8133897  71.9655284  71.1232897  69.1575360  71.7355087
  65.2593445  64.2717475  72.3006730  64.9543581  64.5863624  73.1516873
  66.2123887  64.3498894  72.3434063  63.7039877  70.4307698  73.9499684
  63.1761238  69.6960457  73.6372921  63.2027380  71.2082374  73.7039652
  68.6832723  68.6256718  79.0666730  68.0256397  69.3155980  79.1546859
  69.4873122  69.0153150  79.4100716  67.4938182  66.9801091  77.1170672
  68.0070063  67.6131083  77.6192382  68.1439406  66.3802287  76.7514032
  61.8492477  68.2487908  66.9534657  60.9419539  68.0177162  67.1525806
  62.3463509  67.4525527  67.1408638  64.7560556  76.9585415  69.8731343
  64.0822255  77.2617112  70.4816301  65.1426378  77.7614496  69.5236800
  63.9719013  64.4550547  79.3629012  63.0541574  64.6765494  79.2050700
  64.3879156  64.5296857  78.5040720  64.7554060  65.8541962  74.4931693
  65.5025879  66.3663359  74.1838815  65.0245650  65.5326015  75.3536086
  63.0280710  68.3500503  71.4758647  62.1191930  68.0659536  71.5731117
  63.0575794  68.7699582  70.6161954  68.2599978  71.9607092  75.2449814
  67.8062305  71.1198002  75.3015005  67.6293945  72.5968491  75.5824595
  67.2032897  62.8899078  76.4750482  66.4655654  62.3776465  76.8060724
  67.4559671  62.4499460  75.6633759  66.7032917  73.7983589  76.1799633
  66.9955891  74.3588646  75.4611998  67.2131538  74.0912150  76.9352792
  67.3044525  55.6675330  77.0692251  67.6103402  54.8072694  76.7818166
  68.0297130  56.2592951  76.8691245  62.7256798  69.8909247  68.8146725
  62.2876228  69.1745106  68.3552363  63.4667239  70.1185361  68.2531817
  61.6666542  74.5763940  77.2693086  61.6242721  74.8024787  76.3401618
  62.5829241  74.3427315  77.4178887  65.1132176  65.0448008  84.1673715
  65.4681564  65.2719481  85.0268181  65.7604307  65.3766385  83.5450970
  70.8429913  68.1666444  74.8723044  70.7047812  68.3568040  73.9444233
  70.4866132  68.9285826  75.3291095  70.8699293  70.2342971  79.8834316
  71.3035799  70.1418260  80.7317370  71.5830873  70.2100471  79.2454332
  64.6027188  73.8345065  81.4167416  64.6564210  74.4036001  82.1845132
  63.7341969  74.0046950  81.0521453  71.7314842  70.2766671  82.4167201
  71.9250732  71.1812482  82.6626476  71.6315460  69.8174090  83.2505786
  63.3851153  60.1624562  84.9157528  62.7379068  60.8614512  84.8222005
  64.1552168  60.5960706  85.2833776  66.7929951  70.4273414  87.9908082
  66.6415457  70.1983966  87.0738165  66.7834630  71.3844015  88.0039427
  62.3603619  72.0255991  80.7452886  62.2214705  71.6574776  81.6178824
  61.5718215  72.5403631  80.5736843  62.9551771  77.1265088  72.0878422
  63.1303527  76.6553131  72.9024045  62.2684559  77.7530854  72.3159683
  63.9108834  71.4037594  78.1341723  63.5758667  71.3638364  79.0299373
  63.4112780  70.7382310  77.6612134  66.8468026  68.7493628  68.4078783
  66.2297196  68.0240456  68.3111836  66.3784514  69.5102989  68.0645857
  68.5022158  73.4592537  86.0684563  68.4434704  72.7751757  85.4015146
  68.9041676  74.2011527  85.6165189  57.5212856  80.2754450  78.8618282
  57.7609455  80.9072975  79.5397301  56.6782053  79.9242490  79.1483642
  68.5039565  71.4232121  84.2998543  67.6166344  71.0858042  84.4224942
  69.0738116  70.6915152  84.5367308  62.0340718  76.0833573  81.2659786
  61.9610890  76.8888544  81.7779091  61.5918111  76.2825539  80.4407808
  61.8230498  75.3205343  74.7762608  61.0398020  75.8627023  74.8700832
  62.5223243  75.8379323  75.1756849  65.1327148  61.1299972  77.4196813
  65.6295847  60.3769935  77.0997883  64.3614129  61.1664289  76.8540023
  72.9856905  66.8340338  79.0615105  72.9746782  67.7165053  78.6909038
  72.1174285  66.4811889  78.8669642  64.4939402  75.9820407  83.4217945
  65.2067374  76.6167872  83.3493846  64.0029430  76.0784273  82.6057947
  66.2156929  69.8871660  74.9935237  65.2813207  70.0073122  74.8239941
  66.3933597  68.9844126  74.7295246  69.6029480  65.7288979  75.5285271
  70.0689932  66.5616970  75.4545573  70.0536980  65.2633960  76.2330529
  59.5451315  73.7314850  84.2423516  60.2460775  74.3651333  84.3952910
  59.0746430  74.0729582  83.4819155  67.6705711  72.0732800  72.5271423
  67.9465555  71.9589395  73.4365297  66.8010210  71.6750285  72.4883596
  67.5746143  58.0969566  79.5676172  66.6609222  58.3273793  79.7358379
  68.0039244  58.1808010  80.4190204  67.3452601  66.2859458  82.0676066
  66.6924051  66.5335365  81.4128519  67.7232981  65.4723596  81.7338543
  64.3059775  76.3219151  76.1704236  64.4882170  75.5040807  76.6331989
  65.1292761  76.5386843  75.7329126  64.6401941  75.2487336  73.4319285
  65.1689707  74.7379791  72.8189447  64.9030160  74.9329866  74.2964818
  55.1419033  73.2651205  81.1754618  55.7272470  72.5194893  81.3082523
  54.9443872  73.5755162  82.0591282  57.9957689  76.3002453  76.1917061
  57.3268064  76.7848580  75.7081101  57.8570558  76.5471673  77.1060439
  62.1362957  78.3346196  82.7899719  62.6881265  78.4977818  83.5548804
  62.4769151  78.9250634  82.1179744  66.9873831  73.1607454  88.6448374
  67.5313735  73.7737412  88.1503328  66.4060676  73.7187032  89.1615387
  65.2731344  76.2828172  79.7763401  65.1482484  75.4817912  79.2674347
  65.9310435  76.7774365  79.2877371  67.3366253  74.0837192  81.4042951
  66.3896588  73.9642543  81.3321278  67.6849026  73.1959690  81.4869213
  64.3412686  73.8789908  77.6047304  64.1937648  72.9506616  77.7854874
  65.1666180  73.9009999  77.1204379  67.9446808  74.7018467  78.6912176
  68.8693355  74.4961328  78.5536628  67.7762111  74.4534868  79.6001518
  64.3374200  61.7327746  72.5979421  64.5537815  62.6152384  72.2968249
  63.8568268  61.3413959  71.8685063  67.7342124  75.2204134  74.0474268
  67.9079002  74.6550557  73.2948120  68.2271015  76.0205029  73.8653758
  73.5881515  67.9840557  75.6664568  74.0312661  67.2347883  75.2683691
  72.7108026  67.9750694  75.2838300  68.7217297  74.5370899  71.1471166
  69.4168201  75.1577591  71.3658481  69.0640447  73.6866250  71.4223544
  70.6208720  71.9870604  72.6758497  71.1460044  72.3257877  71.9507817
  70.5331072  71.0517620  72.4921632  62.2828768  75.9004678  84.8048374
  62.5915895  75.6553825  85.6771073  63.0804250  76.1051316  84.3167244
  62.3049380  78.0542588  77.0353750  61.8654371  77.5618966  77.7286607
  63.0557497  77.5115555  76.7945825  59.7523253  73.5980597  79.1076052
  59.1303262  72.9351302  78.8078280  60.4228120  73.6241729  78.4249700
  70.3102626  72.6203508  87.9809695  69.5198169  72.6027647  87.4414194
  70.0735980  73.1591802  88.7358731  70.4300501  69.4695974  85.2942423
  70.4798506  69.3045982  86.2357946  70.3214424  68.6023233  84.9040304
  59.3136760  72.1484520  72.5834512  59.4624880  72.8319984  71.9301185
  60.1203203  72.1289610  73.0983968  67.7204263  65.4526902  86.6101730
  68.6214126  65.3133367  86.3185728  67.7952238  65.6181357  87.5499908
  71.9318698  71.8892916  85.5384445  71.6403506  72.2522896  86.3747906
  71.3190829  71.1759924  85.3597777  73.1314380  69.4545796  78.0587015
  73.9661271  69.8935600  78.2224576  73.2673509  68.9784449  77.2395261
  70.1805886  67.0125530  84.0064503  70.6560008  67.2053177  83.1983354
  69.2571451  67.0684716  83.7607887  62.8132165  74.6432650  70.0546260
  62.2406132  75.2622838  69.6016732  63.3864959  75.1932012  70.5886182
  68.8807555  63.8891291  82.2392809  69.8324978  63.9889388  82.2605033
  68.7111005  63.0969559  82.7490893  66.9021934  60.9746874  82.4252209
  66.3071866  61.2551886  81.7298698  66.6171631  61.4640775  83.1968951
  66.0329425  74.9269801  71.1854842  66.9660098  74.8615362  71.3887718
  65.9452638  75.7626067  70.7269375  68.6617442  74.2435671  68.1458790
  68.5831073  73.9095535  69.0394548  69.4827108  74.7357439  68.1450262
  71.3595633  67.1097410  81.3535108  71.3271953  66.1713411  81.5394792
  71.9696256  67.1881447  80.6200933  63.1978964  65.9793463  67.3962312
  64.1438068  65.8499671  67.4650730  62.8193209  65.2408125  67.8731740
  71.5090121  63.9008454  81.3993391  70.9929170  63.1166910  81.2123320
  72.3930070  63.5727170  81.5639911  69.1700848  57.6449469  77.3589204
  68.9725669  57.3364557  78.2432536  69.7800554  58.3711108  77.4887134
  77.1772183  68.1713417  80.4941145  77.9075571  67.9098705  81.0548848
  76.5679128  67.4342139  80.5343213  75.2587480  66.3121280  81.0915596
  74.5320643  66.1777245  80.4832088  74.8434767  66.6198108  81.8972314
  63.0817656  70.0311209  88.8562969  64.0020666  70.2089808  89.0503016
  63.0467239  69.0867255  88.7042668  61.3821881  63.9043440  67.3317197
  60.4753336  63.6076552  67.4079911  61.6597862  63.6073258  66.4651484
  60.9507594  63.5145450  90.8888499  60.8504321  64.4639807  90.8200590
  60.7329136  63.1863689  90.0164569  68.3053302  59.6358901  74.6164400
  67.7251971  60.2943705  74.2342452  68.0389234  58.8136246  74.2051817
  66.7556868  59.0363959  76.8185720  67.2556647  59.1480494  76.0100039
  67.3992476  58.7325012  77.4586528  67.0878180  61.7958992  73.6720748
  66.2004035  62.0808642  73.4540943  67.5032169  61.6352755  72.8248025
  70.4392716  61.8205513  77.3875087  71.2153106  62.3101965  77.6599704
  69.7140850  62.2463567  77.8446957  72.8765275  62.5333132  78.4449028
  73.4709765  62.2928868  77.7342336  72.9491858  61.8140262  79.0722564
  55.0962430  76.3766743  78.7592193  54.9616898  75.6167144  78.1930191
  54.6794493  77.1007643  78.2920982  66.2321393  71.5603666  67.7668768
  66.9357243  71.7653669  68.3826424  65.5084042  72.1280428  68.0317851
  67.0619204  67.3113528  73.8871038  67.0054405  67.7682079  73.0478670
  67.6147546  66.5504212  73.7093881  70.8724009  63.1003259  74.7121158
  70.6160944  62.6999895  75.5429365  70.2476878  63.8147053  74.5871297
  75.1836347  65.8399333  77.2192449  74.6235905  65.9092522  77.9924011
  74.5779851  65.6640317  76.4991945  58.2531556  77.2736060  78.9710635
  58.1363940  78.2181492  78.8689326  57.4324002  76.9709621  79.3596434
  68.1408091  71.9986196  69.8167228  68.9753695  71.5667394  69.6344703
  67.9792434  71.8268209  70.7444122  67.7953983  68.5018309  71.1823567
  67.7402787  68.3362580  70.2412011  67.1700038  69.2094342  71.3385757
  65.1099890  70.8067221  90.5077130  65.9791050  70.9807873  90.1463765
  64.6306642  71.6261638  90.3852859  59.2786070  77.9264322  82.1866564
  60.1813317  77.9587932  82.5033059  59.0523440  76.9964773  82.2012899
  61.0339672  76.6795308  78.8476642  60.0835303  76.6797170  78.7341015
  61.3372158  75.9328043  78.3312677  76.7692366  82.5155847  79.9122405
  77.4070776  82.3962594  79.2085745  76.6513209  83.4636691  79.9710357
  73.5782072  82.4683275  79.8483929  73.2400584  82.3524339  78.9604464
  74.4471840  82.0674440  79.8284936  69.4368888  84.3218751  75.8380820
  68.8733753  84.2308688  75.0697108  69.3221283  83.5018656  76.3183313
  74.0601855  83.6218126  85.8070135  74.0490496  83.2270925  84.9350639
  74.2222495  82.8884199  86.4003906  66.9833320  85.8169943  78.6765041
  67.7754612  85.4760767  78.2611340  67.2229970  85.9264918  79.5967194
  75.0168446  87.9889719  71.1495285  74.3656426  88.5743799  70.7629299
  75.8112809  88.5195914  71.2090323  68.9424074  85.0778856  71.5482420
  69.7154950  84.5307843  71.4095295  69.2949473  85.9423105  71.7596881
  70.7809116  86.4055238  84.7549319  70.4898982  87.3100869  84.6395985
  71.4166101  86.4471766  85.4693388  71.7065323  83.7832087  81.3450679
  72.3028895  83.5588109  80.6307641  71.7640295  83.0416832  81.9476126
  71.2790351  81.2371522  69.1800870  71.5315872  80.7153043  68.4184333
  70.3414911  81.0737668  69.2827553  76.3233634  80.2407300  76.9875613
  77.1096724  79.8226724  76.6366030  76.5872339  81.1453393  77.1557261
  76.4943712  85.6780151  71.6864270  75.8589545  85.7514777  72.3985174
  76.1641118  86.2673750  71.0083349  81.7242061  80.1782534  77.8908591
  82.4567233  79.6081751  78.1246421  80.9681417  79.7904134  78.3315097
  70.9986640  83.1399628  71.3825244  70.8822898  82.4644531  72.0506329
  71.1088900  82.6532002  70.5657398  73.3418181  82.6009775  75.0871934
  72.9776388  82.0740396  75.7984855  74.1985297  82.2108244  74.9138419
  79.2467482  73.8904108  82.3503200  78.9150807  74.7599519  82.1264415
  78.6513095  73.5740392  83.0297230  72.9823668  77.6299675  70.0833282
  73.1498070  78.4979911  70.4503753  72.7920837  77.7926957  69.1594571
  75.7399001  86.0916654  81.7499113  75.4399724  86.9941693  81.6414920
  75.3950061  85.8248837  82.6020265  69.1911483  82.5430451  77.7835817
  68.2661979  82.4106665  77.9913509  69.4395896  83.3224670  78.2805759
  79.1396145  78.6099194  79.4296550  78.2313022  78.5414602  79.1355311
  79.0883741  79.0871139  80.2578375  72.9612889  80.0857332  71.0679949
  72.8412514  80.5314383  71.9065429  72.2665477  80.4342650  70.5093487
  66.5520294  82.1863724  78.6179606  66.6812675  82.4398203  79.5319018
  65.8717745  82.7791432  78.2984261  70.7219781  92.8560974  74.7170080
  70.6443811  93.8068799  74.7958561  70.1181425  92.5106847  75.3745007
  73.2137011  80.0288840  87.3731447  72.4370345  80.5882760  87.3634312
  73.8527574  80.5145623  87.8946317  81.0057791  76.8115632  81.2074424
  80.3632172  77.1048166  80.5614218  80.5012720  76.6968553  82.0127621
  78.6597955  80.5578806  71.8960283  79.5715811  80.7906192  71.7207981
  78.1507602  81.1415850  71.3335362  71.4683383  82.8374293  86.9349414
  72.2098068  83.3759337  86.6584238  70.7620369  83.4640582  87.0920966
  76.9438723  84.9803433  85.5321576  77.3522079  84.5385844  84.7876208
  76.2215984  84.4056061  85.7855769  73.2969793  79.9176040  82.9055133
  74.1430988  80.3415454  83.0489782  73.2368431  79.2609664  83.5993696
  77.2667537  85.5404624  79.2873865  76.6376400  85.7050338  78.5849932
  76.8793200  85.9546234  80.0584829  81.1456769  86.4759062  76.6418228
  80.4607808  86.8557963  76.0915262  81.2300619  87.0854389  77.3750176
  76.4469238  77.5780409  84.5636306  76.2030170  78.3322469  84.0270582
  76.7229169  77.9565756  85.3983553  78.4007701  84.1219021  83.2413572
  78.6124596  84.7650781  82.5647953  78.3537449  83.2881337  82.7735502
  76.0033930  76.7336842  80.1450144  75.1418409  77.0318095  80.4366882
  76.0296365  76.9507240  79.2131177  72.8195499  85.2779032  76.5523950
  73.2833845  85.5566735  75.7628572  72.5552297  84.3762477  76.3697040
  69.7119580  84.8250514  79.4903713  70.2820937  85.2537782  78.8521197
  70.3027692  84.5433098  80.1887899  71.7564385  81.4002184  73.3613515
  72.4588429  81.8523228  73.8287441  71.4245014  80.7586003  73.9893408
  70.2044747  79.9913941  87.7364724  69.5743407  80.6730222  87.9700121
  70.0980835  79.8797023  86.7917862  65.4989719  79.6585737  78.6630648
  64.7088773  79.9143266  78.1870759  65.9900967  80.4734075  78.7682689
  79.5153529  86.9990976  81.4135929  80.3370973  86.5971164  81.1318611
  79.5115932  86.8959210  82.3652045  67.4504465  80.0230316  75.6214125
  66.6535628  80.1349011  76.1397621  67.2230057  80.3616969  74.7555016
  73.2810132  86.5475020  83.5696640  73.3454565  87.0095427  84.4054812
  72.5721056  85.9172385  83.6978950  63.7827422  79.9116228  81.0945639
  64.0335461  80.7963238  81.3603215  64.3186971  79.7320829  80.3220731
  87.6059522  83.3429725  77.7620901  86.8523230  82.7737123  77.6064905
  87.7407063  83.3092389  78.7091535  72.9958150  88.2143127  73.4375620
  72.8603825  89.0594663  73.8660468  73.5367963  88.4162405  72.6741554
  69.4825490  74.2934707  90.0989975  69.0892435  73.7400906  90.7737619
  70.2991630  74.6045285  90.4896493  66.4487547  85.7318565  74.0103545
  66.9612068  86.5261815  74.1609110  67.1010260  85.0344856  73.9437147
  68.2582432  88.8484321  76.0926298  68.4349060  89.7702286  75.9047282
  69.0539266  88.5342741  76.5220678  72.3993451  75.7092586  87.6910232
  73.1403164  76.3099739  87.6114694  72.6311373  74.9670224  87.1328274
  67.5434789  80.8948953  85.9688461  67.4288304  79.9934211  86.2695560
  66.6879306  81.1412650  85.6173278  69.3813748  90.3662495  82.0936641
  69.9321173  90.2379559  81.3213635  68.5425223  90.6657384  81.7431533
  76.3450614  71.7373689  81.9674513  76.0014883  72.6275331  81.8913624
  76.7129576  71.5475347  81.1044099  64.4136464  84.0607219  74.7863116
  65.2511686  84.4704228  74.5696823  64.5914732  83.1206662  74.7563310
  76.3100896  81.7282300  70.4746949  75.7947520  82.4986905  70.7135336
  76.0378205  81.0547436  71.0980010  73.8948007  76.5732001  75.5332187
  73.0389604  76.1838851  75.3537826  74.3074959  76.6523962  74.6731973
  75.4247154  74.1078344  79.9323747  74.9211950  74.0708479  79.1191552
  75.7177761  75.0171087  79.9920403  71.6690040  74.1917074  78.9389928
  72.5343037  73.9959883  78.5795818  71.7367549  73.9627426  79.8659285
  81.2835170  84.4814655  72.4100122  80.5064613  84.1425814  71.9655284
  81.9626651  84.4867278  71.7355087  76.0987199  79.6009392  72.3006730
  75.7937335  79.9155541  73.1516873  77.0517642  79.6790812  72.3434063
  74.5433631  85.7599616  73.9499684  74.0154993  85.0252375  73.6372921
  74.0421134  86.5374292  73.7039652  79.5226477  83.9548636  79.0666730
  78.8650152  84.6447897  79.1546859  80.3266877  84.3445068  79.4100716
  69.2752359  76.4219282  76.3106295  69.8496111  76.1994463  75.5779488
  69.8623341  76.4907976  77.0634897  78.3331936  82.3093009  77.1170672
  78.8463818  82.9423001  77.6192382  78.9833160  81.7094204  76.7514032
  69.6021946  78.4523743  70.3302181  68.7659258  78.7898429  70.6511455
  69.4626716  78.3172723  69.3929318  71.5775027  73.2960531  75.0381365
  70.9239439  72.9809548  74.4137979  71.5355501  72.6736271  75.7641188
  72.6886231  83.5779826  66.9534657  71.7813293  83.3469079  67.1525806
  73.1857263  82.7817445  67.1408638  75.5954310  92.2877333  69.8731343
  74.9216009  92.5909030  70.4816301  75.9820132  93.0906413  69.5236800
  74.8112767  79.7842464  79.3629012  73.8935328  80.0057411  79.2050700
  75.2272911  79.8588775  78.5040720  75.5947815  81.1833880  74.4931693
  76.3419634  81.6955277  74.1838815  75.8639404  80.8617933  75.3536086
  73.8674465  83.6792421  71.4758647  72.9585684  83.3951453  71.5731117
  73.8969549  84.0991499  70.6161954  79.0993732  87.2899010  75.2449814
  78.6456059  86.4489920  75.3015005  78.4687699  87.9260409  75.5824595
  78.0426652  78.2190996  76.4750482  77.3049409  77.7068382  76.8060724
  78.2953425  77.7791378  75.6633759  77.5426672  89.1275507  76.1799633
  77.8349646  89.6880564  75.4611998  78.0525292  89.4204068  76.9352792
  78.1438279  70.9967248  77.0692251  78.4497156  70.1364612  76.7818166
  78.8690884  71.5884868  76.8691245  64.4362635  81.3997935  75.4573849
  64.2387035  80.8067295  74.7324916  63.8809299  81.0950145  76.1749788
  72.4159359  81.2921041  77.5768442  72.4707969  80.3394878  77.5010919
  71.6050561  81.4480480  78.0609741  73.5650553  85.2201164  68.8146725
  73.1269983  84.5037023  68.3552363  74.3060994  85.4477279  68.2531817
  70.3551719  79.9098101  75.3358821  69.5419584  80.2092272  75.7424013
  70.8510713  79.5153790  76.0533303  72.5060297  89.9055858  77.2693086
  72.4636476  90.1316704  76.3401618  73.4222996  89.6719232  77.4178887
  75.9525931  80.3739925  84.1673715  76.3075318  80.6011399  85.0268181
  76.5998062  80.7058302  83.5450970  81.6823668  83.4958361  74.8723044
  81.5441566  83.6859957  73.9444233  81.3259886  84.2577744  75.3291095
  69.8465794  77.4816457  80.9520056  70.4865173  77.3405216  80.2543019
  69.0143324  77.1950970  80.5758658  81.7093047  85.5634888  79.8834316
  82.1429554  85.4710177  80.7317370  82.4224628  85.5392389  79.2454332
  70.6226098  86.7818887  77.0655049  71.4166696  86.2869207  76.8637623
  69.9117790  86.2536750  76.7022754  75.4420942  89.1636982  81.4167416
  75.4957964  89.7327919  82.1845132  74.5735723  89.3338867  81.0521453
  66.9308861  80.9261969  73.1414801  66.0006449  80.8646424  73.3584763
  67.0266333  80.4037921  72.3451442  66.8494410  77.4516781  75.7293043
  67.1101227  78.3662115  75.6202203  67.6711582  76.9841224  75.8789656
  68.3219335  78.8654539  82.8991867  68.9942389  78.6571901  82.2504516
  67.4949122  78.6676625  82.4597100  82.5708597  85.6058589  82.4167201
  82.7644487  86.5104400  82.6626476  82.4709215  85.1466008  83.2505786
  74.2244907  75.4916480  84.9157528  73.5772822  76.1906429  84.8222005
  74.9945923  75.9252624  85.2833776  74.4009042  83.3297244  82.9754348
  75.3301102  83.4808404  82.8023315  73.9800072  83.4181265  82.1202995
  73.1997374  87.3547909  80.7452886  73.0608459  86.9866693  81.6178824
  72.4111970  87.8695548  80.5736843  73.7945526  92.4557005  72.0878422
  73.9697281  91.9845049  72.9024045  73.1078314  93.0822772  72.3159683
  74.7502589  86.7329512  78.1341723  74.4152421  86.6930282  79.0299373
  74.2506534  86.0674228  77.6612134  68.7246833  82.1397142  83.6594305
  68.5866631  81.4077380  84.2605844  69.6351756  82.0506042  83.3778492
  77.6861780  84.0785546  68.4078783  77.0690951  83.3532374  68.3111836
  77.2178269  84.8394906  68.0645857  71.3529133  81.8517101  83.1477984
  72.0628752  81.2110293  83.1064603  71.3098441  82.1029996  84.0704165
  70.0658067  78.8382319  84.9673624  69.5295424  78.3873057  85.6195220
  69.4774776  78.9728228  84.2244088  68.3606611  95.6046368  78.8618282
  68.6003209  96.2364892  79.5397301  67.5175807  95.2534408  79.1483642
  69.4760326  78.2970970  67.5300087  68.5989793  78.1759771  67.1662334
  69.9518079  77.5057049  67.2778976  60.9962466  83.0848130  77.6241594
  61.6833506  82.7709860  77.0362610  60.8410595  83.9889495  77.3508846
  65.7997189  77.9738327  82.0526618  65.7155377  77.3663996  81.3177028
  64.9779895  78.4647345  82.0536115  72.8734473  91.4125491  81.2659786
  72.8004644  92.2180462  81.7779091  72.4311866  91.6117456  80.4407808
  72.6624252  90.6497261  74.7762608  71.8791774  91.1918941  74.8700832
  73.3616997  91.1671240  75.1756849  75.9720902  76.4591890  77.4196813
  76.4689602  75.7061852  77.0997883  75.2007884  76.4956207  76.8540023
  83.8250660  82.1632256  79.0615105  83.8140536  83.0456971  78.6909038
  82.9568039  81.8103806  78.8669642  77.0550683  85.2163577  74.9935237
  76.1206962  85.3365040  74.8239941  77.2327352  84.3136044  74.7295246
  72.5555871  78.6009273  77.1468498  72.1853659  78.0480313  77.8349403
  73.0514964  77.9967407  76.5943498  80.4423234  81.0580897  75.5285271
  80.9083687  81.8908888  75.4545573  80.8930735  80.5925878  76.2330529
  70.3845070  89.0606768  84.2423516  71.0854529  89.6943251  84.3952910
  69.9140185  89.4021500  83.4819155  78.5099466  87.4024718  72.5271423
  78.7859309  87.2881312  73.4365297  77.6403964  87.0042203  72.4883596
  78.4139897  73.4261484  79.5676172  77.5002977  73.6565710  79.7358379
  78.8432999  73.5099928  80.4190204  78.1846356  81.6151376  82.0676066
  77.5317806  81.8627283  81.4128519  78.5626736  80.8015514  81.7338543
  75.1453530  91.6511069  76.1704236  75.3275924  90.8332725  76.6331989
  75.9686516  91.8678761  75.7329126  75.4795695  90.5779254  73.4319285
  76.0083461  90.0671708  72.8189447  75.7423915  90.2621784  74.2964818
  65.9812788  88.5943123  81.1754618  66.5666225  87.8486811  81.3082523
  65.7837626  88.9047080  82.0591282  68.8351443  91.6294371  76.1917061
  68.1661818  92.1140498  75.7081101  68.6964313  91.8763591  77.1060439
  60.5730443  81.1648723  79.8959062  60.6114542  80.6312314  80.6896180
  60.0670735  80.6383929  79.2770039  67.9521205  76.0113264  83.3921604
  68.0162531  76.8728095  82.9799002  67.8888325  75.3987265  82.6593962
  67.4273477  78.0836396  87.0394638  68.0545516  77.7013474  87.6532162
  66.5701396  77.8650598  87.4050331  64.2039020  79.8912825  72.9712993
  64.4992461  78.9823504  72.9180047  63.3027056  79.8700565  72.6493995
  76.1125099  91.6120090  79.7763401  75.9876238  90.8109829  79.2674347
  76.7704190  92.1066283  79.2877371  67.7333267  77.9668822  78.9540542
  67.0119853  78.5804790  78.8148015  68.5226523  78.5026587  78.8757188
  78.1760007  89.4129110  81.4042951  77.2290343  89.2934461  81.3321278
  78.5242780  88.5251608  81.4869213  70.5359581  75.3023249  85.2281193
  71.0593982  75.5485545  85.9907503  70.3171914  76.1343283  84.8084331
  65.9326862  77.5726923  73.0952318  65.6039568  76.6924302  72.9127424
  66.2866232  77.5174592  73.9828707  75.1806441  89.2081826  77.6047304
  75.0331403  88.2798533  77.7854874  76.0059934  89.2301917  77.1204379
  69.0468685  77.8599893  73.4627796  69.3864757  78.3885814  72.7406404
  69.4940805  78.1980299  74.2386362  78.7840562  90.0310385  78.6912176
  79.7087110  89.8253246  78.5536628  78.6155866  89.7826786  79.6001518
  71.7412126  76.2436944  82.9130864  71.4008946  75.4444757  83.3151544
  71.0351132  76.5438655  82.3407697  72.3928597  73.3286256  81.3658187
  73.2154667  72.8546734  81.2437077  72.6366661  74.1076740  81.8656873
  71.0336832  76.3574515  71.6621089  71.7545194  76.7355767  71.1584805
  70.4102136  77.0763391  71.7656067  75.1767955  77.0619664  72.5979421
  75.3931569  77.9444301  72.2968249  74.6962022  76.6705877  71.8685063
  69.9167176  80.0205377  79.1750166  69.7711757  80.3345680  80.0674447
  69.4392380  80.6390277  78.6221064  71.7763559  77.0107925  79.2231055
  71.7625128  76.1149018  78.8863353  72.4935987  77.0178588  79.8569341
  73.6289690  77.4445265  81.2684182  73.3707468  78.3662336  81.2668513
  73.0974730  77.0475699  81.9584647  78.5735879  90.5496052  74.0474268
  78.7472756  89.9842475  73.2948120  79.0664770  91.3496947  73.8653758
  64.3912838  82.5610721  82.1137827  63.8466306  83.3370529  82.2458101
  65.2692188  82.9081526  81.9556948  71.1800455  75.8922305  74.4918625
  71.3016366  74.9638951  74.6909513  70.8902497  75.9060991  73.5796941
  74.0491645  73.5777215  77.6285345  74.0713342  73.6416549  76.6737325
  74.4659704  72.7381724  77.8225851  84.4275270  83.3132475  75.6664568
  84.8706416  82.5639800  75.2683691  83.5501780  83.3042611  75.2838300
  79.5611051  89.8662816  71.1471166  80.2561956  90.4869509  71.3658481
  79.9034201  89.0158168  71.4223544  65.1778860  81.6880617  85.0067984
  64.4360596  81.8363253  85.5932614  64.8571605  81.9488883  84.1434733
  81.4602474  87.3162522  72.6758497  81.9853798  87.6549795  71.9507817
  81.3724827  86.3809537  72.4921632  73.1443135  93.3834505  77.0353750
  72.7048125  92.8910884  77.7286607  73.8951252  92.8407473  76.7945825
  65.6235474  89.5746046  77.0378378  66.4493494  89.2749818  76.6577022
  65.2729526  88.8053669  77.4868167  70.5917007  88.9272514  79.1076052
  69.9697016  88.2643219  78.8078280  71.2621874  88.9533646  78.4249700
  63.8244079  87.4932373  77.9967312  62.9875987  87.0654547  77.8151313
  63.7967724  87.6864816  78.9338103  70.6641535  77.4054302  88.7008558
  70.7129690  78.2816425  88.3186327  71.2064049  76.8631695  88.1280201
  70.1530514  87.4776438  72.5834512  70.3018634  88.1611902  71.9301185
  70.9596957  87.4581528  73.0983968  78.5598018  80.7818820  86.6101730
  79.4607880  80.6425285  86.3185728  78.6345992  80.9473275  87.5499908
  72.8940823  78.1585675  85.4554916  72.0244132  78.4519241  85.1837505
  73.1300303  78.7426120  86.1762180  83.9708134  84.7837713  78.0587015
  84.8055026  85.2227517  78.2224576  84.1067263  84.3076367  77.2395261
  81.0199640  82.3417448  84.0064503  81.4953762  82.5345094  83.1983354
  80.0965206  82.3976634  83.7607887  67.9083147  83.5041615  73.5895581
  67.6629189  82.6003945  73.7875791  68.0779062  83.5058766  72.6475059
  75.5979857  74.3765292  82.9720337  76.1161801  75.1126319  82.6466825
  75.2434990  74.6829285  83.8067096  67.1778795  79.2369973  71.0881743
  66.4848039  79.3114328  70.4321779  66.9330546  78.4730317  71.6103260
  75.8492451  70.7965574  78.4921233  76.1294205  70.1288763  79.1181660
  76.6343058  70.9894670  77.9795897  73.6525920  89.9724568  70.0546260
  73.0799887  90.5914755  69.6016732  74.2258713  90.5223930  70.5886182
  79.7201309  79.2183208  82.2392809  80.6718732  79.3181306  82.2605033
  79.5504760  78.4261477  82.7490893  77.7415689  76.3038791  82.4252209
  77.1465621  76.5843804  81.7298698  77.4565386  76.7932692  83.1968951
  76.8723179  90.2561718  71.1854842  77.8053852  90.1907280  71.3887718
  76.7846392  91.0917985  70.7269375  79.5011196  89.5727589  68.1458790
  79.4224828  89.2387452  69.0394548  80.3220863  90.0649357  68.1450262
  82.1989387  82.4389328  81.3535108  82.1665707  81.5005329  81.5394792
  82.8090011  82.5173365  80.6200933  74.0372718  81.3085381  67.3962312
  74.9831823  81.1791589  67.4650730  73.6586963  80.5700043  67.8731740
  82.3483876  79.2300371  81.3993391  81.8322924  78.4458828  81.2123320
  83.2323824  78.9019088  81.5639911  80.0094603  72.9741387  77.3589204
  79.8119424  72.6656475  78.2432536  80.6194308  73.7003026  77.4887134
  88.0165937  83.5005335  80.4941145  88.7469326  83.2390623  81.0548848
  87.4072883  82.7634057  80.5343213  86.0981234  81.6413197  81.0915596
  85.3714398  81.5069162  80.4832088  85.6828521  81.9490026  81.8972314
  72.2215635  79.2335357  67.3317197  71.3147091  78.9368470  67.4079911
  72.4991616  78.9365175  66.4651484  63.1393576  80.5541721  77.7816244
  62.8196360  79.7007029  77.4890618  62.5927004  80.7690299  78.5374211
  66.9173483  83.2704162  81.4985750  67.1359493  84.2021269  81.5173784
  67.3299257  82.9112136  82.2840554  73.8377701  73.7772247  73.4861439
  73.0278429  73.4319332  73.8616685  74.5262118  73.4679791  74.0749050
  75.7668249  72.8550294  75.1085735  76.3199288  73.2745747  75.7675759
  76.0038336  71.9286042  75.1508691  71.7901348  78.8437367  90.8888499
  71.6898075  79.7931724  90.8200590  71.5722890  78.5155606  90.0164569
  70.9914420  76.0922292  67.4729177  71.8533584  76.4177191  67.7324994
  71.1764764  75.3053788  66.9602242  63.0081836  84.1744632  79.7509365
  62.3145307  83.7598585  79.2379320  63.7554827  84.2165169  79.1542784
  79.1447056  74.9650819  74.6164400  78.5645725  75.6235623  74.2342452
  78.8782989  74.1428164  74.2051817  77.5950623  74.3655877  76.8185720
  78.0950401  74.4772411  76.0100039  78.2386231  74.0616930  77.4586528
  64.9218578  84.1062886  77.6275380  64.8989266  84.2050573  76.6757263
  65.2319215  84.9528037  77.9492546  67.5805956  86.1639041  81.7421995
  68.5349210  86.1322983  81.6751926  67.3818480  85.7029665  82.5572221
  68.1705338  84.7340157  84.3092792  68.9898227  85.2284236  84.3327630
  68.4442146  83.8172125  84.2810360  77.9271934  77.1250909  73.6720748
  77.0397789  77.4100560  73.4540943  78.3425923  76.9644673  72.8248025
  81.2786470  77.1497430  77.3875087  82.0546861  77.6393883  77.6599704
  80.5534605  77.5755485  77.8446957  83.7159029  77.8625050  78.4449028
  84.3103520  77.6220785  77.7342336  83.7885613  77.1432180  79.0722564
  65.9356185  91.7058660  78.7592193  65.8010653  90.9459061  78.1930191
  65.5188247  92.4299560  78.2920982  77.0715148  86.8895584  67.7668768
  77.7750998  87.0945587  68.3826424  76.3477797  87.4572346  68.0317851
  77.9012958  82.6405445  73.8871038  77.8448159  83.0973997  73.0478670
  78.4541301  81.8796130  73.7093881  81.7117764  78.4295177  74.7121158
  81.4554698  78.0291813  75.5429365  81.0870632  79.1438971  74.5871297
  86.0230102  81.1691250  77.2192449  85.4629660  81.2384440  77.9924011
  85.4173605  80.9932235  76.4991945  69.0925311  92.6027977  78.9710635
  68.9757695  93.5473410  78.8689326  68.2717757  92.3001539  79.3596434
  78.9801845  87.3278113  69.8167228  79.8147449  86.8959312  69.6344703
  78.8186188  87.1560127  70.7444122  78.6347737  83.8310227  71.1823567
  78.5796541  83.6654498  70.2412011  78.0093793  84.5386259  71.3385757
  63.4240252  79.0678291  85.0084989  64.0699116  78.5577245  85.4972215
  63.2157403  79.8046973  85.5828415  71.9443863  73.3318336  70.7608886
  71.9322533  74.2760175  70.9177157  72.8367285  73.1488481  70.4668347
  70.1179825  93.2556239  82.1866564  71.0207071  93.2879850  82.5033059
  69.8917195  92.3256690  82.2012899  71.8733427  92.0087226  78.8476642
  70.9229058  92.0089088  78.7341015  72.1765913  91.2619961  78.3312677
  75.7595982  69.9261112  75.0154822  74.9928378  69.3719599  75.1611505
  76.1706687  69.9982981  75.8768974  67.7637743  76.2145908  89.1060004
  68.6269205  75.8582713  89.3163328  67.1903154  75.8759803  89.7935408
  80.2762642  99.6510669  75.8380820  79.7127507  99.5600606  75.0697108
  80.1615037  98.8310573  76.3183313  79.7817828 100.4070774  71.5482420
  80.5548704  99.8599761  71.4095295  80.1343227 101.2715023  71.7596881
  82.1184106  96.5663440  69.1800870  82.3709627  96.0444961  68.4184333
  81.1808665  96.4029585  69.2827553  81.8380395  98.4691546  71.3825244
  81.7216653  97.7936449  72.0506329  81.9482655  97.9823920  70.5657398
  84.1811936  97.9301693  75.0871934  83.8170143  97.4032314  75.7984855
  85.0379052  97.5400162  74.9138419  83.8217423  92.9591593  70.0833282
  83.9891825  93.8271829  70.4503753  83.6314592  93.1218874  69.1594571
  83.8006643  95.4149250  71.0679949  83.6806269  95.8606301  71.9065429
  83.1059232  95.7634568  70.5093487  89.4991710  95.8870723  71.8960283
  90.4109566  96.1198110  71.7207981  88.9901357  96.4707767  71.3335362
  82.5958140  96.7294102  73.3613515  83.2982183  97.1815146  73.8287441
  82.2638768  96.0877921  73.9893408  76.3383474  94.9877655  78.6630648
  75.5482528  95.2435183  78.1870759  76.8294721  95.8025993  78.7682689
  78.2898219  95.3522234  75.6214125  77.4929382  95.4640928  76.1397621
  78.0623811  95.6908886  74.7555016  77.2881302 101.0610483  74.0103545
  77.8005822 101.8553733  74.1609110  77.9404015 100.3636773  73.9437147
  75.2530219  99.3899137  74.7863116  76.0905441  99.7996145  74.5696823
  75.4308486  98.4498579  74.7563310  87.1494651  97.0574218  70.4746949
  86.6341274  97.8278822  70.7135336  86.8771959  96.3839354  71.0980010
  84.7341762  91.9023919  75.5332187  83.8783358  91.5130769  75.3537826
  85.1468714  91.9815879  74.6731973  82.5083794  89.5208992  78.9389928
  83.3736791  89.3251800  78.5795818  82.5761303  89.2919343  79.8659285
  86.9380954  94.9301310  72.3006730  86.6331090  95.2447459  73.1516873
  87.8911396  95.0082730  72.3434063  80.1146113  91.7511199  76.3106295
  80.6889865  91.5286381  75.5779488  80.7017096  91.8199894  77.0634897
  80.4415701  93.7815660  70.3302181  79.6053013  94.1190347  70.6511455
  80.3020470  93.6464640  69.3929318  82.4168781  88.6252448  75.0381365
  81.7633193  88.3101466  74.4137979  82.3749255  88.0028189  75.7641188
  83.5279986  98.9071743  66.9534657  82.6207048  98.6760997  67.1525806
  84.0251018  98.1109363  67.1408638  86.4341569  96.5125798  74.4931693
  87.1813388  97.0247195  74.1838815  86.7033159  96.1909850  75.3536086
  84.7068219  99.0084338  71.4758647  83.7979439  98.7243371  71.5731117
  84.7363303  99.4283417  70.6161954  88.9832034  86.3259166  77.0692251
  89.2890911  85.4656529  76.7818166  89.7084639  86.9176786  76.8691245
  75.2756390  96.7289852  75.4573849  75.0780790  96.1359213  74.7324916
  74.7203054  96.4242063  76.1749788  84.4044307 100.5493082  68.8146725
  83.9663737  99.8328941  68.3552363  85.1454748 100.7769197  68.2531817
  81.1945473  95.2390019  75.3358821  80.3813339  95.5384189  75.7424013
  81.6904468  94.8445707  76.0533303  77.7702616  96.2553886  73.1414801
  76.8400204  96.1938342  73.3584763  77.8660087  95.7329839  72.3451442
  77.6888165  92.7808699  75.7293043  77.9494982  93.6954032  75.6202203
  78.5105337  92.3133142  75.8789656  80.3154081  93.6262888  67.5300087
  79.4383547  93.5051689  67.1662334  80.7911834  92.8348966  67.2778976
  71.8356221  98.4140048  77.6241594  72.5227261  98.1001778  77.0362610
  71.6804350  99.3181412  77.3508846  86.8114657  91.7883808  77.4196813
  87.3083356  91.0353770  77.0997883  86.0401638  91.8248124  76.8540023
  83.3949626  93.9301191  77.1468498  83.0247413  93.3772231  77.8349403
  83.8908718  93.3259324  76.5943498  71.4124197  96.4940641  79.8959062
  71.4508297  95.9604232  80.6896180  70.9064490  95.9675847  79.2770039
  75.0432775  95.2204743  72.9712993  75.3386216  94.3115422  72.9180047
  74.1420810  95.1992483  72.6493995  78.5727022  93.2960740  78.9540542
  77.8513607  93.9096707  78.8148015  79.3620277  93.8318505  78.8757188
  76.7720616  92.9018841  73.0952318  76.4433322  92.0216220  72.9127424
  77.1259987  92.8466510  73.9828707  79.8862439  93.1891811  73.4627796
  80.2258512  93.7177732  72.7406404  80.3334560  93.5272217  74.2386362
  81.8730586  91.6866432  71.6621089  82.5938949  92.0647685  71.1584805
  81.2495891  92.4055309  71.7656067  86.0161709  92.3911581  72.5979421
  86.2325324  93.2736219  72.2968249  85.5355777  91.9997795  71.8685063
  82.0194210  91.2214223  74.4918625  82.1410121  90.2930869  74.6909513
  81.7296252  91.2352909  73.5796941  84.8885400  88.9069133  77.6285345
  84.9107097  88.9708466  76.6737325  85.3053459  88.0673642  77.8225851
  80.9924269 102.8068355  72.5834512  81.1412389 103.4903820  71.9301185
  81.7990712 102.7873445  73.0983968  78.7476901  98.8333533  73.5895581
  78.5022943  97.9295863  73.7875791  78.9172816  98.8350683  72.6475059
  78.0172549  94.5661891  71.0881743  77.3241794  94.6406246  70.4321779
  77.7724301  93.8022234  71.6103260  86.6886206  86.1257492  78.4921233
  86.9687959  85.4580681  79.1181660  87.4736812  86.3186588  77.9795897
  84.8766473  96.6377299  67.3962312  85.8225577  96.5083507  67.4650730
  84.4980717  95.8991960  67.8731740  90.8488357  88.3033305  77.3589204
  90.6513178  87.9948393  78.2432536  91.4588063  89.0294944  77.4887134
  83.0609390  94.5627275  67.3317197  82.1540845  94.2660388  67.4079911
  83.3385371  94.2657093  66.4651484  73.9787330  95.8833638  77.7816244
  73.6590114  95.0298947  77.4890618  73.4320758  96.0982217  78.5374211
  84.6771455  89.1064165  73.4861439  83.8672184  88.7611250  73.8616685
  85.3655872  88.7971708  74.0749050  86.6062004  88.1842211  75.1085735
  87.1593042  88.6037665  75.7675759  86.8432090  87.2577960  75.1508691
  81.8308174  91.4214210  67.4729177  82.6927338  91.7469108  67.7324994
  82.0158518  90.6345706  66.9602242  89.9840811  90.2942737  74.6164400
  89.4039480  90.9527541  74.2342452  89.7176743  89.4720081  74.2051817
  88.4344377  89.6947794  76.8185720  88.9344156  89.8064329  76.0100039
  89.0779985  89.3908847  77.4586528  88.7665689  92.4542827  73.6720748
  87.8791544  92.7392478  73.4540943  89.1819678  92.2936590  72.8248025
  82.7837617  88.6610253  70.7608886  82.7716287  89.6052093  70.9177157
  83.6761039  88.4780399  70.4668347  86.5989737  85.2553030  75.0154822
  85.8322133  84.7011517  75.1611505  87.0100442  85.3274899  75.8768974
  33.4117349  -1.7949701  66.6367711  34.0495759  -1.9142954  65.9331051
  33.2938192  -0.8468858  66.6955664  30.2207055  -1.8422273  66.5729236
  29.8825567  -1.9581209  65.6849771  31.0896824  -2.2431108  66.5530242
  26.0793871   0.0113203  62.5626127  25.5158736  -0.0796860  61.7942415
  25.9646266  -0.8086892  63.0428620  30.7026838  -0.6887422  72.5315442
  30.6915479  -1.0834623  71.6595945  30.8647478  -1.4221349  73.1249213
  23.6258303   1.5064395  65.4010347  24.4179595   1.1655219  64.9856647
  23.8654953   1.6159370  66.3212501  31.6593430   3.6784171  57.8740592
  31.0081410   4.2638251  57.4874606  32.4537793   4.2090366  57.9335629
  25.5849057   0.7673308  58.2727726  26.3579933   0.2202295  58.1340602
  25.9374456   1.6317557  58.4842188  27.4234100   2.0949690  71.4794626
  27.1323965   2.9995321  71.3641292  28.0591084   2.1366218  72.1938695
  28.3490306  -0.5273461  68.0695985  28.9453879  -0.7517439  67.3552948
  28.4065278  -1.2688716  68.6721433  32.9658618  -4.0698248  63.7120919
  33.7521707  -4.4878824  63.3611336  33.2297322  -3.1652155  63.8802568
  33.1368695   1.3674603  58.4109576  32.5014528   1.4409229  59.1230481
  32.8066101   1.9568202  57.7328655  38.3667045  -4.1323014  64.6153898
  39.0992217  -4.7023798  64.8491727  37.6106400  -4.5201414  65.0560403
  27.6411624  -1.1705920  58.1070551  27.5247882  -1.8461017  58.7751635
  27.7513883  -1.6573546  57.2902704  29.9843164  -1.7095773  61.8117240
  29.6201372  -2.2365152  62.5230162  30.8410280  -2.0997304  61.6383726
  32.3823985   1.7811106  68.4744419  32.0824708   2.6836144  68.3660226
  32.0375044   1.5143289  69.3265572  35.7821128  -5.7006354  66.1541857
  34.8738006  -5.7690946  65.8600618  35.7308724  -5.2234409  66.9823682
  29.6037872  -4.2248216  57.7925256  29.4837497  -3.7791165  58.6310736
  28.9090461  -3.8762898  57.2338794  27.3644764   8.5455426  61.4415387
  27.2868794   9.4963251  61.5203867  26.7606408   8.2001299  62.0990313
  37.6482775  -7.4989916  67.9319730  37.0057155  -7.2057383  67.2859525
  37.1437703  -7.6136995  68.7372927  35.3022938  -3.7526743  58.6205590
  36.2140795  -3.5199356  58.4453287  34.7932586  -3.1689698  58.0580668
  28.1108366  -1.4731255  73.6594721  28.8523051  -0.9346211  73.3829544
  27.4045352  -0.8464966  73.8166273  33.5863706   0.6697885  72.2566882
  33.9947062   0.2280296  71.5121515  32.8640968   0.0950513  72.5101075
  29.9394776  -4.3929508  69.6300439  30.7855971  -3.9690094  69.7735088
  29.8793414  -5.0495884  70.3239002  33.9092521   1.2299076  66.0119171
  33.2801383   1.3944790  65.3095239  33.5218183   1.6440685  66.7830135
  37.7881753   2.1653514  63.3663535  37.1032791   2.5452415  62.8160568
  37.8725602   2.7748840  64.0995483  33.0894221  -6.7325140  71.2881613
  32.8455153  -5.9783079  70.7515889  33.3654152  -6.3539792  72.1228860
  35.0432684  -0.1886527  69.9658878  35.2549579   0.4545233  69.2893260
  34.9962433  -1.0224211  69.4980809  29.4620483   0.9673484  63.2769256
  29.9258828   1.2461187  62.4873879  29.1977281   0.0656929  63.0942347
  26.3544564   0.5144966  66.2149020  26.9245921   0.9432234  65.5766504
  26.9452676   0.2327550  66.9133205  28.3989369  -2.9103364  60.0858821
  29.1013412  -2.4582320  60.5532748  28.0669997  -3.5519545  60.7138715
  36.1578512   2.6885428  68.1381236  36.9795956   2.2865615  67.8563917
  36.1540915   2.5853662  69.0897352  29.9235116   2.2369471  70.2941946
  29.9879548   2.6989879  71.1300118  29.2146040   1.6066836  70.4224256
  44.2484505  -0.9675823  64.4866207  43.4948214  -1.5368425  64.3310212
  44.3832046  -1.0013159  65.4336842  29.6383133   3.9037579  60.1620927
  29.5028808   4.7489115  60.5905774  30.1792946   4.1056857  59.3986860
  23.0912531   1.4213017  60.7348852  23.6037051   2.2156267  60.8854416
  23.7435244   0.7239307  60.6682453  24.9007415   4.5378773  62.8171605
  25.0774044   5.4596738  62.6292589  25.6964249   4.2237193  63.2465985
  31.2651610   4.5261145  74.2921269  30.8215464   3.7397524  73.9742173
  31.9268823   4.7140296  73.6265160  26.0238731   6.0556947  68.8181947
  26.5746156   5.9274010  68.0458941  25.1850207   6.3551836  68.4676840
  33.3632848   4.8063945  72.3202670  33.3451323   5.6272826  71.8282939
  34.2852768   4.6818021  72.5452811  29.8205902   2.3208075  73.1626178
  30.3534239   1.5596363  72.9325486  29.2919983   2.0281727  73.9050333
  32.9525880  -2.5823248  57.1992255  32.4372503  -1.8118643  57.4380643
  32.6803188  -3.2558112  57.8225317  37.9260154   0.1709107  59.1345429
  37.1489596  -0.1679734  58.6900591  38.6051635   0.1761730  58.4600394
  32.7412183  -4.7096156  59.0252036  32.4362318  -4.3950007  59.8762180
  33.6942625  -4.6314736  59.0679369  31.1858615   1.4494067  60.6744990
  30.6579976   0.7146827  60.3618228  30.6846117   2.2268744  60.4284959
  36.1651461  -0.3556912  65.7912037  35.5075135   0.3342349  65.8792165
  36.9691860   0.0339520  66.1346023  34.9756919  -2.0012539  63.8415978
  35.4888801  -1.3682548  64.3437688  35.6258143  -2.6011344  63.4759338
  29.3311215  -0.7325722  53.6779963  28.4238277  -0.9636469  53.8771112
  29.8282247  -1.5288103  53.8653945  32.2379294   7.9771785  56.5976650
  31.5640992   8.2803482  57.2061607  32.6245116   8.7800865  56.2482107
  31.4537750  -4.5263084  66.0874319  30.5360312  -4.3048137  65.9296007
  31.8697894  -4.4516773  65.2286026  32.2372798  -3.1271668  61.2176999
  32.9844617  -2.6150271  60.9084121  32.5064388  -3.4487615  62.0781393
  30.5099448  -0.6313127  58.2003954  29.6010667  -0.9154095  58.2976423
  30.5394532  -0.2114049  57.3407260  35.7418716   2.9793462  61.9695121
  35.2881043   2.1384372  62.0260312  35.1112682   3.6154860  62.3069901
  34.6851635  -6.0914552  63.1995789  33.9474392  -6.6037166  63.5306031
  34.9378409  -6.5314170  62.3879065  34.1851655   4.8169959  62.9044939
  34.4774629   5.3775016  62.1857305  34.6950275   5.1098520  63.6598098
  29.0584342  -3.0184507  64.3013749  29.1132952  -3.9710670  64.2256225
  28.2475544  -2.8625068  64.7855047  30.2075536   0.9095616  55.5392032
  29.7694966   0.1931475  55.0797669  30.9485977   1.1371731  54.9777123
  29.1485280   5.5950310  63.9938392  29.1061459   5.8211156  63.0646924
  30.0647979   5.3613684  64.1424194  32.5950914  -3.9365623  70.8919022
  32.9500302  -3.7094150  71.7513487  33.2423045  -3.6047246  70.2696277
  38.3248651  -0.8147187  61.5968351  38.1866549  -0.6245591  60.6689540
  37.9684870  -0.0527804  62.0536402  38.3518030   1.2529340  66.6079622
  38.7854537   1.1604629  67.4562676  39.0649611   1.2286841  65.9699638
  27.2651081   2.4713339  63.7900355  28.0591679   1.9763659  63.5882930
  26.5542773   1.9431202  63.4268061  32.0845925   4.8531434  68.1412723
  32.1382948   5.4222371  68.9090439  31.2160707   5.0233319  67.7766760
  39.2133580   1.2953041  69.1412508  39.4069470   2.1998851  69.3871782
  39.1134198   0.8360460  69.9751093  34.2748689   1.4459784  74.7153388
  34.1234195   1.2170335  73.7983472  34.2653368   2.4030385  74.7284733
  31.0434025  -0.9808304  69.6999655  31.9726085  -0.8297144  69.5268622
  30.6225055  -0.8924283  68.8448301  29.8422357   3.0442361  67.4698192
  29.7033443   2.6761145  68.3424130  29.0536953   3.5590000  67.2982150
  30.4370509   8.1451457  58.8123729  30.6122265   7.6739500  59.6269351
  29.7503297   8.7717223  59.0404989  31.3927572   2.4223963  64.8587030
  31.0577405   2.3824733  65.7544680  30.8931518   1.7568679  64.3857440
  34.3286764  -0.2320002  55.1324090  33.7115934  -0.9573174  55.0357142
  33.8603252   0.5289358  54.7891164  27.9954117  -2.4588447  69.8723291
  28.7053735  -3.0995255  69.8309909  27.9523425  -2.2075552  70.7949472
  35.9840895   4.4778906  72.7929870  35.9253441   3.7938126  72.1260453
  36.3860414   5.2197896  72.3410496  25.0031594  11.2940820  65.5863589
  25.2428192  11.9259344  66.2642608  24.1600791  10.9428860  65.8728948
  35.9858303   2.4418490  71.0243850  35.0985081   2.1044412  71.1470249
  36.5556854   1.7101521  71.2612615  29.5159456   7.1019942  67.9905093
  29.4429627   7.9074914  68.5024397  29.0736849   7.3011908  67.1653114
  29.3049236   6.3391712  61.5007914  28.5216757   6.8813393  61.5946139
  30.0041981   6.8565692  61.9002156  40.4675643  -2.1473293  65.7860411
  40.4565519  -1.2648577  65.4154344  39.5993023  -2.5001742  65.5914948
  31.9758139   7.0006777  70.1463252  32.6886112   7.6354241  70.0739153
  31.4848168   7.0970642  69.3303253  33.6975666   0.9058029  61.7180543
  32.7631945   1.0259492  61.5485248  33.8752335   0.0030496  61.4540553
  37.0848218  -3.2524652  62.2530577  37.5508670  -2.4196660  62.1790880
  37.5355718  -3.7179670  62.9575836  27.0270053   4.7501220  70.9668822
  27.7279513   5.3837703  71.1198217  26.5565168   5.0915952  70.2064462
  35.1524449   3.0919170  59.2516729  35.4284293   2.9775764  60.1610604
  34.2828948   2.6936655  59.2128903  34.8271339  -2.6954173  68.7921373
  34.1742789  -2.4478265  68.1373826  35.2051719  -3.5090034  68.4583850
  31.7878513   7.3405521  62.8949543  31.9700907   6.5227177  63.3577295
  32.6111499   7.5573213  62.4574433  32.1220678   6.2673706  60.1564592
  32.6508445   5.7566160  59.5434754  32.3848898   5.9516236  61.0210125
  22.6237771   4.2837575  67.8999925  23.2091208   3.5381263  68.0327829
  22.4262610   4.5941532  68.7836589  25.4776426   7.3188822  62.9162367
  24.8086802   7.8034950  62.4326408  25.3389296   7.5658043  63.8305746
  29.6181695   9.3532566  69.5145026  30.1700003   9.5164187  70.2794111
  29.9587888   9.9437004  68.8425051  34.4692569   4.1793823  75.3693680
  35.0132473   4.7923782  74.8748635  33.8879414   4.7373402  75.8860693
  32.7550082   7.3014541  66.5008708  32.6301222   6.5004281  65.9919653
  33.4129173   7.7960735  66.0122678  34.8184991   5.1023562  68.1288258
  33.8715326   4.9828913  68.0566585  35.1667764   4.2146060  68.2114520
  31.8231424   4.8976278  64.3292610  31.6756386   3.9692985  64.5100180
  32.6484917   4.9196368  63.8449686  35.4265546   5.7204836  65.4157483
  36.3512093   5.5147698  65.2781934  35.2580849   5.4721238  66.3246825
  35.2160862   6.2390504  60.7719575  35.3897739   5.6736926  60.0193427
  35.7089753   7.0391399  60.5899064  41.0700253  -0.9973073  62.3909874
  41.5131399  -1.7465748  61.9928998  40.1926763  -1.0062937  62.0083606
  36.2036034   5.5557268  57.8716473  36.8986939   6.1763961  58.0903787
  36.5459185   4.7052620  58.1468851  38.1027458   3.0056974  59.4003804
  38.6278782   3.3444247  58.6753124  38.0149810   2.0703989  59.2166938
  29.7647506   6.9191048  71.5293680  30.0734633   6.6740194  72.4016380
  30.5622988   7.1237686  71.0412550  29.7868118   9.0728957  63.7599057
  29.3473109   8.5805336  64.4531913  30.5376235   8.5301925  63.5191132
  22.2660457   5.2640498  63.7623685  23.0918477   4.9644270  63.3822328
  21.9154509   4.4948120  64.2113473  27.2341990   4.6166966  65.8321358
  26.6122000   3.9537671  65.5323586  27.9046857   4.6428098  65.1495006
  20.4669062   3.1826824  64.7212618  19.6300971   2.7548999  64.5396620
  20.4392708   3.3759268  65.6583410  37.7921364   3.6389878  74.7055002
  37.0016907   3.6214016  74.1659501  37.5554718   4.1778171  75.4604038
  37.9119239   0.4882344  72.0187730  37.9617244   0.3232351  72.9603253
  37.8033162  -0.3790397  71.6285611  26.7955497   3.1670890  59.3079819
  26.9443618   3.8506354  58.6546492  27.6021941   3.1475980  59.8229275
  35.2023001  -3.5286728  73.3347037  36.1032864  -3.6680263  73.0431035
  35.2770976  -3.3632273  74.2745214  39.4137435   2.9079285  72.2629752
  39.1222244   3.2709266  73.0993213  38.8009567   2.1946294  72.0843084
  40.6133118   0.4732165  64.7832322  41.4480009   0.9121969  64.9469882
  40.7492247  -0.0029182  63.9640568  37.6624624  -1.9688100  70.7309810
  38.1378745  -1.7760454  69.9228661  36.7390189  -1.9128914  70.4853193
  30.2950903   5.6619020  56.7791566  29.7224870   6.2809207  56.3262038
  30.8683697   6.2118382  57.3131488  36.3626293  -5.0922340  68.9638115
  37.3143716  -4.9924242  68.9850339  36.1929743  -5.8844071  69.4736200
  34.3840672  -8.0066757  69.1497516  33.7890604  -7.7261744  68.4544005
  34.0990369  -7.5172856  69.9214257  33.5148163   5.9456170  57.9100149
  34.4478836   5.8801732  58.1133024  33.4271375   6.7812437  57.4514681
  36.1436179   5.2622041  54.8704096  36.0649811   4.9281904  55.7639854
  36.9645846   5.7543808  54.8695569  38.8414370  -1.8716220  68.0780415
  38.8090691  -2.8100219  68.2640099  39.4514994  -1.7932183  67.3446240
  30.6797701  -3.0020167  54.1207619  31.6256806  -3.1313959  54.1896037
  30.3011946  -3.7405505  54.5977047  38.9908859  -5.0805177  68.1238698
  38.4747908  -5.8646720  67.9368627  39.8748807  -5.4086460  68.2885218
  44.6590920  -0.8100213  67.2186452  45.3894309  -1.0714925  67.7794155
  44.0497866  -1.5471491  67.2588520  42.7406217  -2.6692351  67.8160903
  42.0139381  -2.8036386  67.2077394  42.3253504  -2.3615522  68.6217621
  30.5636394   1.0497579  75.5808276  31.4839403   1.2276178  75.7748322
  30.5285977   0.1053624  75.4287975  24.2230939   1.8533493  68.4667301
  25.1774193   1.8217435  68.3997233  24.0243463   1.3924117  69.2817527
  24.8130321   0.4234609  71.0338099  25.6323210   0.9178688  71.0572936
  25.0867129  -0.4933423  71.0055667  34.5696918  -7.1854639  60.3966055
  33.6822773  -6.9004988  60.1786249  34.9850907  -7.3460875  59.5493331
  37.9211454  -7.1608118  64.1120394  38.6971844  -6.6711665  64.3845011
  37.1959588  -6.7350064  64.5692263  22.5781168   7.3953112  65.4837499
  22.4435636   6.6353513  64.9175497  22.1613230   8.1194012  65.0166288
  33.7140131   2.5790036  54.4914075  34.4175981   2.7840038  55.1071730
  32.9902780   3.1466798  54.7563158  34.5437941  -1.6700103  60.6116345
  34.4873143  -1.2131551  59.7723977  35.0966284  -2.4309418  60.4339187
  38.3542747  -5.8810371  61.4366464  38.0979682  -6.2813735  62.2674672
  37.7295615  -5.1666577  61.3116603  42.6655085  -3.1414298  63.9437756
  42.1054643  -3.0721108  64.7169318  42.0598588  -3.3173313  63.2237252
  25.7350294   8.2922429  65.6955942  25.6182678   9.2367862  65.5934632
  24.9142740   7.9895991  66.0841741  35.6226828   3.0172565  56.5412535
  36.4572432   2.5853764  56.3590009  35.4611171   2.8454579  57.4689429
  35.2772721  -0.4795322  57.9068874  35.2221524  -0.6451050  56.9657318
  34.6518776   0.2280711  58.0631064  32.5918628   1.8253590  77.2322437
  33.4609787   1.9994243  76.8709072  32.1125379   2.6448007  77.1098166
  26.7604808   8.9450691  68.9111870  27.6632055   8.9774302  69.2278365
  26.5342178   8.0151142  68.9258206  28.5158410   7.6981678  65.5721949
  27.5654041   7.6983539  65.4586321  28.8190896   6.9514412  65.0557984
  44.2511104  13.5342216  66.6367711  44.8889514  13.4148964  65.9331051
  44.1331946  14.4823060  66.6955664  41.0600810  13.4869644  66.5729236
  40.7219321  13.3710709  65.6849771  41.9290578  13.0860809  66.5530242
  36.9187626  15.3405121  62.5626127  36.3552491  15.2495058  61.7942415
  36.8040021  14.5205025  63.0428620  41.5420593  14.6404496  72.5315442
  41.5309234  14.2457294  71.6595945  41.7041232  13.9070569  73.1249213
  34.4652057  16.8356312  65.4010347  35.2573349  16.4947137  64.9856647
  34.7048708  16.9451287  66.3212501  42.4987184  19.0076088  57.8740592
  41.8475164  19.5930169  57.4874606  43.2931547  19.5382283  57.9335629
  36.4242811  16.0965226  58.2727726  37.1973687  15.5494213  58.1340602
  36.7768210  16.9609475  58.4842188  38.2627854  17.4241608  71.4794626
  37.9717720  18.3287239  71.3641292  38.8984838  17.4658135  72.1938695
  39.1884061  14.8018456  68.0695985  39.7847633  14.5774479  67.3552948
  39.2459032  14.0603202  68.6721433  38.7609089  12.2557892  55.9046176
  39.0134610  11.7339413  55.1429639  37.8233648  12.0924037  56.0072860
  43.8052372  11.2593670  63.7120919  44.5915461  10.8413093  63.3611336
  44.0691076  12.1639762  63.8802568  43.9762449  16.6966520  58.4109576
  43.3408282  16.7701147  59.1230481  43.6459856  17.2860119  57.7328655
  49.2060799  11.1968903  64.6153898  49.9385971  10.6268120  64.8491727
  48.4500155  10.8090504  65.0560403  38.4805378  14.1585998  58.1070551
  38.3641636  13.4830901  58.7751635  38.5907638  13.6718372  57.2902704
  40.8236919  13.6196145  61.8117240  40.4595126  13.0926766  62.5230162
  41.6804035  13.2294614  61.6383726  46.7286220   4.9090477  69.0748506
  46.3969544   5.7785888  68.8509721  46.1331833   4.5926761  69.7542537
  40.4642406   8.6486044  56.8078589  40.6316808   9.5166281  57.1749060
  40.2739575   8.8113326  55.8839878  43.2217739  17.1103023  68.4744419
  42.9218462  18.0128062  68.3660226  42.8768799  16.8435207  69.3265572
  36.6730221  13.5616820  64.5081124  35.7480717  13.4293034  64.7158815
  36.9214634  14.3411039  65.0051066  46.6214883   9.6285564  66.1541857
  45.7131760   9.5600972  65.8600618  46.5702479  10.1057508  66.9823682
  40.4431627  11.1043702  57.7925256  40.3231252  11.5500753  58.6310736
  39.7484215  11.4529020  57.2338794  34.0339032  13.2050094  65.3424913
  34.1631413  13.4584573  66.2564324  33.3536483  13.7977802  65.0229568
  38.2038519  23.8747344  61.4415387  38.1262549  24.8255169  61.5203867
  37.6000162  23.5293216  62.0990313  40.6955749  11.0475209  74.0976754
  39.9189083  11.6069129  74.0879618  41.3346312  11.5331992  74.6191624
  48.4876529   7.8302002  67.9319730  47.8450910   8.1234535  67.2859525
  47.9831458   7.7154922  68.7372927  46.1416693  11.5765175  58.6205590
  47.0534549  11.8092562  58.4453287  45.6326340  12.1602219  58.0580668
  38.9502121  13.8560662  73.6594721  39.6916805  14.3945706  73.3829544
  38.2439106  14.4826951  73.8166273  44.4257461  15.9989803  72.2566882
  44.8340817  15.5572213  71.5121515  43.7034722  15.4242430  72.5101075
  40.7788531  10.9362410  69.6300439  41.6249726  11.3601823  69.7735088
  40.7187168  10.2796034  70.3239002  44.7486275  16.5590994  66.0119171
  44.1195138  16.7236708  65.3095239  44.3611937  16.9732603  66.7830135
  48.6275507  17.4945431  63.3663535  47.9426545  17.8744333  62.8160568
  48.7119356  18.1040758  64.0995483  43.9287976   8.5966778  71.2881613
  43.6848908   9.3508839  70.7515889  44.2047906   8.9752126  72.1228860
  45.8826439  15.1405390  69.9658878  46.0943334  15.7837150  69.2893260
  45.8356187  14.3067707  69.4980809  43.4852668   7.7523211  66.8695451
  42.6237147   8.0504465  67.1612188  43.5115102   7.9693610  65.9376483
  40.3014237  16.2965402  63.2769256  40.7652583  16.5753105  62.4873879
  40.0371035  15.3948846  63.0942347  37.1938318  15.8436883  66.2149020
  37.7639675  16.2724152  65.5766504  37.7846430  15.5619468  66.9133205
  39.2383123  12.4188554  60.0858821  39.9407167  12.8709598  60.5532748
  38.9063752  11.7772373  60.7138715  37.6863485  11.0100311  74.4610031
  37.0562145  11.6916592  74.6945428  37.5799573  10.8983392  73.5163169
  32.9808457  10.6772107  65.3875955  32.1907511  10.9329635  64.9116066
  33.4719705  11.4920445  65.4927996  46.9972267  18.0177346  68.1381236
  47.8189710  17.6157533  67.8563917  46.9934670  17.9145580  69.0897352
  34.9323203  11.0416686  62.3459432  34.1354366  11.1535380  62.8642927
  34.7048795  11.3803338  61.4800322  40.7628870  17.5661389  70.2941946
  40.8273303  18.0281796  71.1300118  40.0539794  16.9358754  70.4224256
  31.2646160  10.9302597  67.8190946  31.5154199  11.8149607  68.0848522
  31.8005709  10.7507199  67.0466038  55.0878260  14.3616094  64.4866207
  54.3341968  13.7923492  64.3310212  55.2225801  14.3278759  65.4336842
  40.4776888  19.2329497  60.1620927  40.3422563  20.0781032  60.5905774
  41.0186700  19.4348774  59.3986860  36.9644227   5.3121077  76.8235282
  36.5711173   4.7587275  77.4982926  37.7810368   5.6231655  77.2141799
  33.9306285  16.7504935  60.7348852  34.4430806  17.5448185  60.8854416
  34.5828998  16.0531225  60.6682453  35.7401170  19.8670691  62.8171605
  35.9167798  20.7888656  62.6292589  36.5358003  19.5529110  63.2465985
  39.8812188   6.7278956  74.4155538  40.6221902   7.3286109  74.3360001
  40.1130111   5.9856593  73.8573581  35.0253526  11.9135323  72.6933768
  34.9107042  11.0120580  72.9940867  34.1698044  12.1599020  72.3418585
  42.1045364  19.8553063  74.2921269  41.6609218  19.0689442  73.9742173
  42.7662578  20.0432214  73.6265160  36.8632485  21.3848865  68.8181947
  37.4139910  21.2565928  68.0458941  36.0243961  21.6843754  68.4676840
  44.2026602  20.1355863  72.3202670  44.1845078  20.9564744  71.8282939
  45.1246522  20.0109938  72.5452811  40.6599656  17.6499993  73.1626178
  41.1927993  16.8888281  72.9325486  40.1313737  17.3573644  73.9050333
  43.8269351   2.7560059  68.6919820  43.4833621   3.6461700  68.6158931
  44.1948314   2.5661716  67.8289405  31.8955202  15.0793589  61.5108422
  32.7330424  15.4890597  61.2942130  32.0733470  14.1393031  61.4808616
  43.7919634  12.7468670  57.1992255  43.2766258  13.5173274  57.4380643
  43.5196943  12.0733806  57.8225317  41.3766745   7.5918370  62.2577494
  40.5208341   7.2025221  62.0783132  41.7893697   7.6710331  61.3977279
  42.9065892   5.1264714  66.6569053  42.4030687   5.0894849  65.8436859
  43.1996499   6.0357456  66.7165710  39.1508778   5.2103443  65.6635235
  40.0161774   5.0146252  65.3041125  39.2186287   4.9813795  66.5904592
  48.7653908  15.5001024  59.1345429  47.9883351  15.1612184  58.6900591
  49.4445389  15.5053647  58.4600394  43.5805937  10.6195762  59.0252036
  43.2756073  10.9341911  59.8762180  44.5336379  10.6977182  59.0679369
  42.0252369  16.7785985  60.6744990  41.4973731  16.0438745  60.3618228
  41.5239872  17.5560661  60.4284959  47.0045215  14.9735006  65.7912037
  46.3468890  15.6634267  65.8792165  47.8085614  15.3631437  66.1346023
  36.7571097   7.4405651  63.0351602  37.3314849   7.2180833  62.3024795
  37.3442079   7.5094346  63.7880203  45.8150674  13.3279378  63.8415978
  46.3282556  13.9609370  64.3437688  46.4651898  12.7280574  63.4759338
  37.0840684   9.4710112  57.0547487  36.2477996   9.8084799  57.3756762
  36.9445453   9.3359092  56.1174624  39.0593764   4.3146900  61.7626671
  38.4058177   3.9995917  61.1383286  39.0174239   3.6922641  62.4886494
  40.1704969  14.5966195  53.6779963  39.2632031  14.3655449  53.8771112
  40.6676001  13.8003815  53.8653945  43.0773048  23.3063703  56.5976650
  42.4034747  23.6095399  57.2061607  43.4638870  24.1092783  56.2482107
  42.2931505  10.8028834  66.0874319  41.3754066  11.0243781  65.9296007
  42.7091648  10.8775144  65.2286026  43.0766553  12.2020249  61.2176999
  43.8238371  12.7141647  60.9084121  43.3458142  11.8804302  62.0781393
  41.3493203  14.6978790  58.2003954  40.4404422  14.4137823  58.2976423
  41.3788287  15.1177869  57.3407260  46.5812470  18.3085380  61.9695121
  46.1274797  17.4676290  62.0260312  45.9506437  18.9446778  62.3069901
  45.5245390   9.2377366  63.1995789  44.7868146   8.7254752  63.5306031
  45.7772163   8.7977747  62.3879065  45.0245409  20.1461876  62.9044939
  45.3168384  20.7066933  62.1857305  45.5344030  20.4390437  63.6598098
  45.6257017   2.0153618  63.7937558  45.9315894   1.1550981  63.5063473
  46.3509622   2.6071238  63.5936552  31.9181373  12.4184304  62.1819156
  31.7205773  11.8253665  61.4570222  31.3628037  12.1136515  62.8995095
  39.8978097  12.3107411  64.3013749  39.9526707  11.3581247  64.2256225
  39.0869299  12.4666850  64.7855047  41.0469291  16.2387534  55.5392032
  40.6088720  15.5223393  55.0797669  41.7879731  16.4663649  54.9777123
  37.8370457  10.9284471  62.0604128  37.0238322  11.2278641  62.4669320
  38.3329451  10.5340159  62.7778610  39.9879035  20.9242227  63.9938392
  39.9455213  21.1503074  63.0646924  40.9041733  20.6905602  64.1424194
  43.4344668  11.3926295  70.8919022  43.7894056  11.6197768  71.7513487
  44.0816800  11.7244672  70.2696277  49.1642405  14.5144731  61.5968351
  49.0260304  14.7046327  60.6689540  48.8078624  15.2764114  62.0536402
  37.3284531   8.5002826  67.6765363  37.9683911   8.3591585  66.9788326
  36.4962062   8.2137339  67.3003965  49.1911785  16.5821258  66.6079622
  49.6248292  16.4896547  67.4562676  49.9043366  16.5578758  65.9699638
  38.1044835  17.8005256  63.7900355  38.8985434  17.3055577  63.5882930
  37.3936528  17.2723120  63.4268061  42.9239680  20.1823352  68.1412723
  42.9776702  20.7514288  68.9090439  42.0554461  20.3525237  67.7766760
  34.4127599  11.9448338  59.8660108  33.4825187  11.8832794  60.0830070
  34.5085071  11.4224291  59.0696749  34.3313148   8.4703151  62.4538349
  34.5919965   9.3848484  62.3447510  35.1530320   8.0027594  62.6034962
  35.8038073   9.8840908  69.6237174  36.4761127   9.6758270  68.9749823
  34.9767860   9.6862994  69.1842406  50.0527334  16.6244959  69.1412508
  50.2463225  17.5290769  69.3871782  49.9527953  16.1652378  69.9751093
  41.7063645   6.5102849  71.6402835  41.0591560   7.2092799  71.5467311
  42.4764661   6.9438993  72.0079083  45.1142443  16.7751701  74.7153388
  44.9627950  16.5462253  73.7983472  45.1047123  17.7322303  74.7284733
  41.8827780  14.3483614  69.6999655  42.8119840  14.4994774  69.5268622
  41.4618810  14.4367635  68.8448301  40.6816111  18.3734278  67.4698192
  40.5427197  18.0053063  68.3424130  39.8930708  18.8881918  67.2982150
  41.2764263  23.4743375  58.8123729  41.4516019  23.0031418  59.6269351
  40.5897051  24.1009141  59.0404989  42.2321326  17.7515881  64.8587030
  41.8971159  17.7116651  65.7544680  41.7325272  17.0860597  64.3857440
  36.2065570  13.1583511  70.3839611  36.0685368  12.4263750  70.9851150
  37.1170494  13.0692411  70.1023799  45.1680518  15.0971916  55.1324090
  44.5509689  14.3718744  55.0357142  44.6997007  15.8581276  54.7891164
  38.8347871  12.8703471  69.8723291  39.5447490  12.2296663  69.8309909
  38.7917179  13.1216365  70.7949472  46.8234650  19.8070824  72.7929870
  46.7647196  19.1230044  72.1260453  47.2254168  20.5489814  72.3410496
  37.5476805   9.8568688  71.6918930  37.0114162   9.4059427  72.3440527
  36.9593514   9.9914597  70.9489395  35.8425349  26.6232738  65.5863589
  36.0821947  27.2551262  66.2642608  34.9994545  26.2720778  65.8728948
  36.9579064   9.3157340  54.2545394  36.0808530   9.1946141  53.8907641
  37.4336817   8.5243418  54.0024283  46.8252057  17.7710408  71.0243850
  45.9378836  17.4336330  71.1470249  47.3950608  17.0393439  71.2612615
  28.4781204  14.1034500  64.3486901  29.1652244  13.7896230  63.7607916
  28.3229333  15.0075864  64.0754153  33.2815926   8.9924696  68.7771925
  33.1974115   8.3850366  68.0422335  32.4598633   9.4833714  68.7781421
  40.3553210  22.4311860  67.9905093  40.2823382  23.2366832  68.5024397
  39.9130604  22.6303826  67.1653114  40.1442990  21.6683630  61.5007914
  39.3610512  22.2105310  61.5946139  40.8435735  22.1857610  61.9002156
  43.4539640   7.4778260  64.1442120  43.9508340   6.7248222  63.8243190
  42.6826622   7.5142576  63.5785329  51.3069398  13.1818625  65.7860411
  51.2959274  14.0643341  65.4154344  50.4386777  12.8290176  65.5914948
  42.8151894  22.3298694  70.1463252  43.5279866  22.9646159  70.0739153
  42.3241923  22.4262560  69.3303253  44.5369421  16.2349947  61.7180543
  43.6025700  16.3551409  61.5485248  44.7146089  15.3322414  61.4540553
  40.0374609   9.6195643  63.8713804  39.6672396   9.0666683  64.5594710
  40.5333701   9.0153776  63.3188804  47.9241972  12.0767266  62.2530577
  48.3902424  12.9095258  62.1790880  48.3749473  11.6112248  62.9575836
  37.8663808  20.0793138  70.9668822  38.5673267  20.7129621  71.1198217
  37.3958923  20.4207869  70.2064462  45.9918203  18.4211087  59.2516729
  46.2678047  18.3067682  60.1610604  45.1222702  18.0228572  59.2128903
  45.8958635   4.4447853  66.2921479  44.9821715   4.6752080  66.4603686
  46.3251736   4.5286297  67.1435511  45.6665093  12.6337745  68.7921373
  45.0136544  12.8813653  68.1373826  46.0445473  11.8201883  68.4583850
  42.6272267  22.6697438  62.8949543  42.8094662  21.8519094  63.3577295
  43.4505253  22.8865131  62.4574433  42.9614433  21.5965623  60.1564592
  43.4902199  21.0858078  59.5434754  43.2242652  21.2808154  61.0210125
  41.7152667  13.3757556  75.2787410  41.0393304  13.2751685  75.9489785
  42.5380300  13.2196770  75.7423407  33.4631526  19.6129493  67.8999925
  34.0484962  18.8673181  68.0327829  33.2656364  19.9233449  68.7836589
  36.3170181  22.6480740  62.9162367  35.6480556  23.1326868  62.4326408
  36.1783050  22.8949961  63.8305746  28.0549180  12.1835093  66.6204368
  28.0933280  11.6498684  67.4141486  27.5489473  11.6570298  66.0015345
  40.4575449  24.6824484  69.5145026  41.0093757  24.8456105  70.2794111
  40.7981643  25.2728921  68.8425051  35.4339943   7.0299633  70.1166911
  35.4981269   7.8914464  69.7044308  35.3707063   6.4173635  69.3839269
  34.9092215   9.1022766  73.7639945  35.5364254   8.7199843  74.3777469
  34.0520134   8.8836968  74.1295637  45.3086324  19.5085741  75.3693680
  45.8526228  20.1215699  74.8748635  44.7273169  20.0665320  75.8860693
  31.6857758  10.9099195  59.6958300  31.9811199  10.0009873  59.6425353
  30.7845794  10.8886935  59.3739302  43.5943837  22.6306459  66.5008708
  43.4694976  21.8296199  65.9919653  44.2522928  23.1252652  66.0122678
  35.2152005   8.9855192  65.6785848  34.4938591   9.5991159  65.5393322
  36.0045261   9.5212956  65.6002494  45.6578745  20.4315479  68.1288258
  44.7109081  20.3120830  68.0566585  46.0061518  19.5437977  68.2114520
  38.0178318   6.3209618  71.9526500  38.5412720   6.5671915  72.7152809
  37.7990652   7.1529653  71.5329637  33.4145599   8.5913293  59.8197625
  33.0858306   7.7110672  59.6372731  33.7684970   8.5360961  60.7074014
  42.6625178  20.2268195  64.3292610  42.5150141  19.2984903  64.5100180
  43.4878672  20.2488286  63.8449686  36.5287423   8.8786263  60.1873102
  36.8683495   9.4072184  59.4651711  36.9759543   9.2166669  60.9631669
  46.2659300  21.0496754  65.4157483  47.1905848  20.8439616  65.2781934
  46.0974604  20.8013155  66.3246825  39.2230863   7.2623313  69.6376171
  38.8827684   6.4631126  70.0396850  38.5169870   7.5625024  69.0653004
  39.8747335   4.3472626  68.0903494  40.6973405   3.8733104  67.9682384
  40.1185399   5.1263109  68.5902180  38.5155570   7.3760884  58.3866395
  39.2363932   7.7542137  57.8830112  37.8920874   8.0949761  58.4901373
  42.6586693   8.0806033  59.3224728  42.8750307   8.9630671  59.0213556
  42.1780760   7.6892246  58.5930370  37.3985914  11.0391746  65.8995472
  37.2530495  11.3532049  66.7919754  36.9211118  11.6576647  65.3466371
  39.2582297   8.0294294  65.9476362  39.2443866   7.1335388  65.6108660
  39.9754725   8.0364958  66.5814648  41.1108428   8.4631634  67.9929489
  40.8526205   9.3848705  67.9913820  40.5793468   8.0662069  68.6829953
  46.0554616  21.5682422  60.7719575  46.2291494  21.0028844  60.0193427
  46.5483508  22.3683316  60.5899064  31.8731576  13.5797091  68.8383133
  31.3285044  14.3556899  68.9703408  32.7510926  13.9267895  68.6802255
  38.6619193   6.9108675  61.2163932  38.7835104   5.9825321  61.4154819
  38.3721235   6.9247361  60.3042247  41.5310383   4.5963585  64.3530652
  41.5532080   4.6602918  63.3982631  41.9478442   3.7568094  64.5471158
  51.9094008  14.3318845  62.3909874  52.3525154  13.5826170  61.9928998
  51.0320518  14.3228981  62.0083606  47.0429789  20.8849186  57.8716473
  47.7380694  21.5055879  58.0903787  47.3852939  20.0344537  58.1468851
  32.6597598  12.7066987  71.7313290  31.9179334  12.8549622  72.3177921
  32.3390342  12.9675253  70.8680040  48.9421212  18.3348892  59.4003804
  49.4672536  18.6736164  58.6753124  48.8543565  17.3995907  59.2166938
  40.6041261  22.2482965  71.5293680  40.9128387  22.0032112  72.4016380
  41.4016743  22.4529604  71.0412550  40.6261873  24.4020875  63.7599057
  40.1866863  23.9097254  64.4531913  41.3769990  23.8593842  63.5191132
  33.1054212  20.5932416  63.7623685  33.9312232  20.2936188  63.3822328
  32.7548264  19.8240038  64.2113473  38.0735745  19.9458884  65.8321358
  37.4515754  19.2829589  65.5323586  38.7440612  19.9720016  65.1495006
  31.3062817  18.5118742  64.7212618  30.4694725  18.0840917  64.5396620
  31.2786462  18.7051185  65.6583410  38.1460272   8.4240672  75.4253864
  38.1948428   9.3002795  75.0431634  38.6882787   7.8818065  74.8525508
  48.6315118  18.9681795  74.7055002  47.8410662  18.9505934  74.1659501
  48.3948473  19.5070089  75.4604038  48.7512993  15.8174262  72.0187730
  48.8010998  15.6524269  72.9603253  48.6426916  14.9501521  71.6285611
  37.6349252  18.4962807  59.3079819  37.7837372  19.1798272  58.6546492
  38.4415695  18.4767897  59.8229275  46.0416756  11.8005190  73.3347037
  46.9426618  11.6611654  73.0431035  46.1164730  11.9659644  74.2745214
  40.3759561   9.1772044  72.1800223  39.5062870   9.4705610  71.9082812
  40.6119041   9.7612489  72.9007487  50.2531190  18.2371203  72.2629752
  49.9615998  18.6001184  73.0993213  49.6403321  17.5238211  72.0843084
  51.4526872  15.8024083  64.7832322  52.2873764  16.2413887  64.9469882
  51.5886001  15.3262736  63.9640568  48.5018378  13.3603818  70.7309810
  48.9772500  13.5531464  69.9228661  47.5783944  13.4163004  70.4853193
  35.3901885  14.5227985  60.3140888  35.1447927  13.6190315  60.5121098
  35.5597799  14.5245135  59.3720366  43.0798595   5.3951661  69.6965643
  43.5980539   6.1312688  69.3712132  42.7253727   5.7015655  70.5312403
  34.6597532  10.2556342  57.8127049  33.9666777  10.3300697  57.1567085
  34.4149284   9.4916686  58.3348566  43.3311189   1.8151944  65.2166540
  43.6112943   1.1475133  65.8426967  44.1161796   2.0081039  64.7041204
  41.1344657  20.9910938  56.7791566  40.5618624  21.6101125  56.3262038
  41.7077451  21.5410299  57.3131488  47.2020047  10.2369578  68.9638115
  48.1537470  10.3367675  68.9850339  47.0323498   9.4447846  69.4736200
  45.2234427   7.3225161  69.1497516  44.6284359   7.6030174  68.4544005
  44.9384123   7.8119062  69.9214257  44.3541917  21.2748088  57.9100149
  45.2872590  21.2093650  58.1133024  44.2665130  22.1104355  57.4514681
  46.9829934  20.5913958  54.8704096  46.9043565  20.2573822  55.7639854
  47.8039601  21.0835726  54.8695569  49.6808125  13.4575697  68.0780415
  49.6484445  12.5191698  68.2640099  50.2908749  13.5359734  67.3446240
  41.5191456  12.3271750  54.1207619  42.4650561  12.1977959  54.1896037
  41.1405701  11.5886412  54.5977047  49.8302613  10.2486741  68.1238698
  49.3141662   9.4645198  67.9368627  50.7142562   9.9205458  68.2885218
  47.4913340   3.9927756  64.0834511  47.2938162   3.6842845  64.9677843
  48.1013046   4.7189395  64.2132441  55.4984675  14.5191704  67.2186452
  56.2288063  14.2576992  67.7794155  54.8891620  13.7820426  67.2588520
  53.5799972  12.6599567  67.8160903  52.8533136  12.5255532  67.2077394
  53.1647259  12.9676396  68.6217621  41.4030148  16.3789497  75.5808276
  42.3233158  16.5568096  75.7748322  41.3679731  15.4345542  75.4287975
  39.7034373  10.2521727  54.0562504  38.7965828   9.9554840  54.1325218
  39.9810354   9.9551545  53.1896790  30.6212313  11.5728090  64.5061551
  30.3015098  10.7193398  64.2135925  30.0745742  11.7876668  65.2619518
  34.3992221  14.2890531  68.2231057  34.6178231  15.2207639  68.2419091
  34.8117995  13.9298506  69.0085861  41.3196439   4.7958617  60.2106745
  40.5097167   4.4505702  60.5861991  42.0080856   4.4866160  60.7994357
  43.2486987   3.8736663  61.8331042  43.8018026   4.2932117  62.4921065
  43.4857073   2.9472411  61.8753998  39.2720086   9.8623737  77.6133806
  39.1716813  10.8118094  77.5445897  39.0541628   9.5341976  76.7409876
  38.4733158   7.1108662  54.1974483  39.3352322   7.4363560  54.4570301
  38.6583502   6.3240158  53.6847549  30.4900573  15.1931002  66.4754672
  29.7964045  14.7784955  65.9624627  31.2373564  15.2351538  65.8788091
  46.6265794   5.9837189  61.3409706  46.0464463   6.6421993  60.9587759
  46.3601727   5.1614533  60.9297124  45.0769360   5.3842246  63.5431027
  45.5769139   5.4958781  62.7345345  45.7204968   5.0803299  64.1831835
  39.1351356  13.2920876  76.4298868  38.6518438  14.0921236  76.6362757
  39.2212295  13.3028821  75.4766312  32.4037316  15.1249256  64.3520687
  32.3808004  15.2236943  63.4002570  32.7137952  15.9714406  64.6737853
  35.0624694  17.1825411  68.4667301  36.0167947  17.1509353  68.3997233
  34.8637217  16.7216034  69.2817527  35.6524076  15.7526527  71.0338099
  36.4716965  16.2470605  71.0572936  35.9260884  14.8358495  71.0055667
  45.4090672   8.1437279  60.3966055  44.5216527   8.4286930  60.1786249
  45.8244661   7.9831042  59.5493331  48.7605208   8.1683800  64.1120394
  49.5365598   8.6580252  64.3845011  48.0353342   8.5941854  64.5692263
  51.1977767   8.8811419  65.1694334  51.7922258   8.6407155  64.4587643
  51.2704351   8.1618550  65.7967871  33.4174923  22.7245030  65.4837499
  33.2829390  21.9645431  64.9175497  33.0006985  23.4485930  65.0166288
  44.5533886  17.9081954  54.4914075  45.2569736  18.1131956  55.1071730
  43.8296534  18.4758715  54.7563158  45.3831696  13.6591815  60.6116345
  45.3266897  14.1160366  59.7723977  45.9360038  12.8982499  60.4339187
  49.1936502   9.4481547  61.4366464  48.9373436   9.0478182  62.2674672
  48.5689370  10.1625341  61.3116603  53.5048840  12.1877620  63.9437756
  52.9448398  12.2570809  64.7169318  52.8992343  12.0118605  63.2237252
  36.5744048  23.6214347  65.6955942  36.4576433  24.5659780  65.5934632
  35.7536495  23.3187909  66.0841741  46.4620583  18.3464483  56.5412535
  47.2966187  17.9145681  56.3590009  46.3004926  18.1746496  57.4689429
  46.1166475  14.8496596  57.9068874  46.0615279  14.6840868  56.9657318
  45.4912530  15.5572629  58.0631064  30.9058990  10.0864660  71.7330296
  31.5517854   9.5763614  72.2217521  30.6976141  10.8233342  72.3073721
  43.4312382  17.1545508  77.2322437  44.3003542  17.3286160  76.8709072
  42.9519134  17.9739925  77.1098166  39.4262601   4.3504705  57.4854192
  39.4141270   5.2946545  57.6422463  40.3186022   4.1674851  57.1913654
  37.5998563  24.2742609  68.9111870  38.5025809  24.3066219  69.2278365
  37.3735933  23.3443060  68.9258206  39.3552165  23.0273596  65.5721949
  38.4047796  23.0275457  65.4586321  39.6584651  22.2806330  65.0557984
  43.2414720   0.9447482  61.7400129  42.4747116   0.3905968  61.8856811
  43.6525425   1.0169350  62.6014281  35.2456481   7.2332278  75.8305310
  36.1087943   6.8769082  76.0408635  34.6721892   6.8946172  76.5180715
  55.0904858  28.8634134  66.6367711  55.7283268  28.7440881  65.9331051
  54.9725701  29.8114978  66.6955664  51.8994564  28.8161562  66.5729236
  51.5613076  28.7002627  65.6849771  52.7684333  28.4152727  66.5530242
  47.7581380  30.6697038  62.5626127  47.1946245  30.5786975  61.7942415
  47.6433775  29.8496943  63.0428620  52.3814347  29.9696414  72.5315442
  52.3702988  29.5749212  71.6595945  52.5434987  29.2362486  73.1249213
  45.3045812  32.1648230  65.4010347  46.0967104  31.8239055  64.9856647
  45.5442462  32.2743205  66.3212501  53.3380939  34.3368006  57.8740592
  52.6868919  34.9222087  57.4874606  54.1325302  34.8674201  57.9335629
  47.2636566  31.4257143  58.2727726  48.0367442  30.8786130  58.1340602
  47.6161965  32.2901393  58.4842188  49.1021608  32.7533526  71.4794626
  48.8111474  33.6579156  71.3641292  49.7378593  32.7950053  72.1938695
  50.0277815  30.1310374  68.0695985  50.6241388  29.9066396  67.3552948
  50.0852787  29.3895120  68.6721433  49.6002844  27.5849809  55.9046176
  49.8528364  27.0631331  55.1429639  48.6627403  27.4215955  56.0072860
  54.6446127  26.5885588  63.7120919  55.4309216  26.1705011  63.3611336
  54.9084831  27.4931680  63.8802568  54.8156204  32.0258438  58.4109576
  54.1802037  32.0993065  59.1230481  54.4853610  32.6152037  57.7328655
  60.0454554  26.5260821  64.6153898  60.7779726  25.9560038  64.8491727
  59.2893909  26.1382421  65.0560403  49.3199132  29.4877915  58.1070551
  49.2035391  28.8122819  58.7751635  49.4301392  29.0010289  57.2902704
  51.6630673  28.9488062  61.8117240  51.2988881  28.4218683  62.5230162
  52.5197789  28.5586531  61.6383726  57.5679974  20.2382395  69.0748506
  57.2363299  21.1077806  68.8509721  56.9725587  19.9218679  69.7542537
  51.3036160  23.9777962  56.8078589  51.4710563  24.8458199  57.1749060
  51.1133329  24.1405244  55.8839878  54.0611494  32.4394941  68.4744419
  53.7612217  33.3419980  68.3660226  53.7162553  32.1727124  69.3265572
  47.5123975  28.8908738  64.5081124  46.5874472  28.7584952  64.7158815
  47.7608388  29.6702957  65.0051066  57.4608637  24.9577481  66.1541857
  56.5525515  24.8892890  65.8600618  57.4096233  25.4349426  66.9823682
  51.2825381  26.4335620  57.7925256  51.1625006  26.8792670  58.6310736
  50.5877970  26.7820937  57.2338794  44.8732786  28.5342011  65.3424913
  45.0025167  28.7876490  66.2564324  44.1930237  29.1269719  65.0229568
  49.0432273  39.2039261  61.4415387  48.9656303  40.1547086  61.5203867
  48.4393917  38.8585134  62.0990313  51.5349503  26.3767127  74.0976754
  50.7582837  26.9361047  74.0879618  52.1740066  26.8623910  74.6191624
  59.3270284  23.1593920  67.9319730  58.6844664  23.4526453  67.2859525
  58.8225212  23.0446840  68.7372927  56.9810447  26.9057093  58.6205590
  57.8928304  27.1384480  58.4453287  56.4720094  27.4894137  58.0580668
  49.7895875  29.1852580  73.6594721  50.5310560  29.7237624  73.3829544
  49.0832861  29.8118869  73.8166273  55.2651215  31.3281721  72.2566882
  55.6734571  30.8864131  71.5121515  54.5428477  30.7534348  72.5101075
  51.6182285  26.2654327  69.6300439  52.4643480  26.6893741  69.7735088
  51.5580923  25.6087952  70.3239002  55.5880030  31.8882911  66.0119171
  54.9588892  32.0528625  65.3095239  55.2005692  32.3024521  66.7830135
  59.4669262  32.8237349  63.3663535  58.7820300  33.2036250  62.8160568
  59.5513111  33.4332676  64.0995483  54.7681730  23.9258696  71.2881613
  54.5242662  24.6800756  70.7515889  55.0441661  24.3044043  72.1228860
  56.7220193  30.4697308  69.9658878  56.9337088  31.1129068  69.2893260
  56.6749941  29.6359625  69.4980809  54.3246422  23.0815129  66.8695451
  53.4630901  23.3796382  67.1612188  54.3508857  23.2985528  65.9376483
  51.1407992  31.6257319  63.2769256  51.6046337  31.9045022  62.4873879
  50.8764790  30.7240764  63.0942347  48.0332073  31.1728801  66.2149020
  48.6033430  31.6016069  65.5766504  48.6240185  30.8911386  66.9133205
  50.0776878  27.7480472  60.0858821  50.7800921  28.2001515  60.5532748
  49.7457506  27.1064291  60.7138715  48.5257239  26.3392228  74.4610031
  47.8955900  27.0208509  74.6945428  48.4193327  26.2275310  73.5163169
  43.8202212  26.0064024  65.3875955  43.0301266  26.2621553  64.9116066
  44.3113459  26.8212362  65.4927996  57.8366021  33.3469264  68.1381236
  58.6583465  32.9449451  67.8563917  57.8328424  33.2437498  69.0897352
  45.7716957  26.3708604  62.3459432  44.9748120  26.4827298  62.8642927
  45.5442549  26.7095256  61.4800322  51.6022625  32.8953307  70.2941946
  51.6667057  33.3573714  71.1300118  50.8933549  32.2650672  70.4224256
  42.1039915  26.2594515  67.8190946  42.3547953  27.1441525  68.0848522
  42.6399463  26.0799116  67.0466038  65.9272014  29.6908012  64.4866207
  65.1735723  29.1215410  64.3310212  66.0619555  29.6570677  65.4336842
  51.3170642  34.5621414  60.1620927  51.1816317  35.4072950  60.5905774
  51.8580455  34.7640692  59.3986860  47.8037982  20.6412994  76.8235282
  47.4104927  20.0879193  77.4982926  48.6204122  20.9523573  77.2141799
  44.7700040  32.0796852  60.7348852  45.2824560  32.8740103  60.8854416
  45.4222753  31.3823143  60.6682453  46.5794924  35.1962609  62.8171605
  46.7561553  36.1180573  62.6292589  47.3751758  34.8821028  63.2465985
  50.7205943  22.0570873  74.4155538  51.4615656  22.6578026  74.3360001
  50.9523866  21.3148511  73.8573581  45.8647281  27.2427241  72.6933768
  45.7500796  26.3412498  72.9940867  45.0091799  27.4890937  72.3418585
  52.9439119  35.1844981  74.2921269  52.5002973  34.3981359  73.9742173
  53.6056332  35.3724131  73.6265160  47.7026240  36.7140782  68.8181947
  48.2533665  36.5857846  68.0458941  46.8637716  37.0135671  68.4676840
  55.0420357  35.4647781  72.3202670  55.0238832  36.2856662  71.8282939
  55.9640277  35.3401856  72.5452811  51.4993411  32.9791910  73.1626178
  52.0321748  32.2180198  72.9325486  50.9707492  32.6865562  73.9050333
  54.6663106  18.0851976  68.6919820  54.3227375  18.9753618  68.6158931
  55.0342068  17.8953634  67.8289405  42.7348956  30.4085507  61.5108422
  43.5724178  30.8182515  61.2942130  42.9127224  29.4684949  61.4808616
  54.6313389  28.0760587  57.1992255  54.1160012  28.8465192  57.4380643
  54.3590697  27.4025723  57.8225317  52.2160500  22.9210288  62.2577494
  51.3602096  22.5317139  62.0783132  52.6287451  23.0002249  61.3977279
  53.7459646  20.4556631  66.6569053  53.2424442  20.4186767  65.8436859
  54.0390253  21.3649374  66.7165710  49.9902532  20.5395361  65.6635235
  50.8555529  20.3438170  65.3041125  50.0580041  20.3105713  66.5904592
  59.6047663  30.8292942  59.1345429  58.8277105  30.4904101  58.6900591
  60.2839144  30.8345565  58.4600394  54.4199692  25.9487679  59.0252036
  54.1149827  26.2633829  59.8762180  55.3730134  26.0269099  59.0679369
  52.8646124  32.1077903  60.6744990  52.3367485  31.3730662  60.3618228
  52.3633626  32.8852579  60.4284959  57.8438970  30.3026923  65.7912037
  57.1862644  30.9926185  65.8792165  58.6479369  30.6923355  66.1346023
  47.5964851  22.7697569  63.0351602  48.1708603  22.5472751  62.3024795
  48.1835834  22.8386264  63.7880203  56.6544428  28.6571296  63.8415978
  57.1676310  29.2901288  64.3437688  57.3045652  28.0572491  63.4759338
  47.9234438  24.8002030  57.0547487  47.0871751  25.1376717  57.3756762
  47.7839208  24.6651010  56.1174624  49.8987519  19.6438818  61.7626671
  49.2451931  19.3287835  61.1383286  49.8567993  19.0214558  62.4886494
  51.0098724  29.9258113  53.6779963  50.1025786  29.6947366  53.8771112
  51.5069756  29.1295732  53.8653945  53.9166803  38.6355620  56.5976650
  53.2428501  38.9387317  57.2061607  54.3032625  39.4384701  56.2482107
  53.1325259  26.1320751  66.0874319  52.2147821  26.3535698  65.9296007
  53.5485403  26.2067062  65.2286026  53.9160307  27.5312167  61.2176999
  54.6632126  28.0433564  60.9084121  54.1851897  27.2096220  62.0781393
  52.1886957  30.0270708  58.2003954  51.2798176  29.7429741  58.2976423
  52.2182041  30.4469786  57.3407260  57.4206225  33.6377297  61.9695121
  56.9668552  32.7968207  62.0260312  56.7900191  34.2738696  62.3069901
  56.3639144  24.5669283  63.1995789  55.6261901  24.0546670  63.5306031
  56.6165918  24.1269665  62.3879065  55.8639164  35.4753794  62.9044939
  56.1562138  36.0358851  62.1857305  56.3737784  35.7682355  63.6598098
  56.4650772  17.3445535  63.7937558  56.7709648  16.4842899  63.5063473
  57.1903376  17.9363156  63.5936552  42.7575128  27.7476222  62.1819156
  42.5599527  27.1545583  61.4570222  42.2021792  27.4428432  62.8995095
  50.7371851  27.6399328  64.3013749  50.7920461  26.6873165  64.2256225
  49.9263053  27.7958768  64.7855047  51.8863045  31.5679452  55.5392032
  51.4482475  30.8515310  55.0797669  52.6273486  31.7955566  54.9777123
  48.6764211  26.2576388  62.0604128  47.8632077  26.5570559  62.4669320
  49.1723205  25.8632077  62.7778610  50.8272789  36.2534145  63.9938392
  50.7848968  36.4794991  63.0646924  51.7435488  36.0197520  64.1424194
  54.2738423  26.7218213  70.8919022  54.6287811  26.9489686  71.7513487
  54.9210554  27.0536589  70.2696277  60.0036160  29.8436649  61.5968351
  59.8654058  30.0338245  60.6689540  59.6472379  30.6056031  62.0536402
  48.1678286  23.8294744  67.6765363  48.8077665  23.6883503  66.9788326
  47.3355816  23.5429257  67.3003965  60.0305539  31.9113176  66.6079622
  60.4642046  31.8188465  67.4562676  60.7437120  31.8870676  65.9699638
  48.9438590  33.1297174  63.7900355  49.7379188  32.6347494  63.5882930
  48.2330282  32.6015037  63.4268061  53.7633434  35.5115270  68.1412723
  53.8170457  36.0806206  68.9090439  52.8948216  35.6817155  67.7766760
  45.2521353  27.2740256  59.8660108  44.3218941  27.2124711  60.0830070
  45.3478825  26.7516209  59.0696749  45.1706902  23.7995069  62.4538349
  45.4313720  24.7140402  62.3447510  45.9924075  23.3319511  62.6034962
  46.6431828  25.2132826  69.6237174  47.3154881  25.0050188  68.9749823
  45.8161614  25.0154912  69.1842406  60.8921089  31.9536876  69.1412508
  61.0856979  32.8582687  69.3871782  60.7921707  31.4944295  69.9751093
  52.5457400  21.8394767  71.6402835  51.8985315  22.5384716  71.5467311
  53.3158415  22.2730911  72.0079083  55.9536198  32.1043619  74.7153388
  55.8021704  31.8754171  73.7983472  55.9440877  33.0614220  74.7284733
  52.7221534  29.6775532  69.6999655  53.6513594  29.8286691  69.5268622
  52.3012564  29.7659553  68.8448301  51.5209866  33.7026196  67.4698192
  51.3820952  33.3344981  68.3424130  50.7324462  34.2173836  67.2982150
  52.1158018  38.8035293  58.8123729  52.2909773  38.3323336  59.6269351
  51.4290806  39.4301059  59.0404989  53.0715081  33.0807799  64.8587030
  52.7364914  33.0408569  65.7544680  52.5719027  32.4152515  64.3857440
  47.0459325  28.4875429  70.3839611  46.9079123  27.7555668  70.9851150
  47.9564248  28.3984329  70.1023799  56.0074273  30.4263833  55.1324090
  55.3903443  29.7010661  55.0357142  55.5390761  31.1873193  54.7891164
  49.6741626  28.1995388  69.8723291  50.3841244  27.5588580  69.8309909
  49.6310934  28.4508283  70.7949472  57.6628404  35.1362742  72.7929870
  57.6040950  34.4521962  72.1260453  58.0647923  35.8781732  72.3410496
  48.3870560  25.1860606  71.6918930  47.8507917  24.7351345  72.3440527
  47.7987268  25.3206515  70.9489395  46.6819103  41.9524655  65.5863589
  46.9215701  42.5843180  66.2642608  45.8388300  41.6012695  65.8728948
  47.7972819  24.6449257  54.2545394  46.9202285  24.5238058  53.8907641
  48.2730572  23.8535336  54.0024283  57.6645812  33.1002325  71.0243850
  56.7772590  32.7628247  71.1470249  58.2344363  32.3685357  71.2612615
  39.3174959  29.4326417  64.3486901  40.0045999  29.1188147  63.7607916
  39.1623087  30.3367782  64.0754153  44.1209681  24.3216614  68.7771925
  44.0367870  23.7142283  68.0422335  43.2992387  24.8125632  68.7781421
  51.1946965  37.7603778  67.9905093  51.1217136  38.5658749  68.5024397
  50.7524358  37.9595744  67.1653114  50.9836745  36.9975548  61.5007914
  50.2004266  37.5397228  61.5946139  51.6829490  37.5149527  61.9002156
  54.2933395  22.8070177  64.1442120  54.7902094  22.0540140  63.8243190
  53.5220376  22.8434494  63.5785329  62.1463152  28.5110543  65.7860411
  62.1353028  29.3935258  65.4154344  61.2780532  28.1582094  65.5914948
  53.6545648  37.6590612  70.1463252  54.3673621  38.2938077  70.0739153
  53.1635677  37.7554478  69.3303253  55.3763175  31.5641865  61.7180543
  54.4419454  31.6843327  61.5485248  55.5539844  30.6614331  61.4540553
  50.8768363  24.9487560  63.8713804  50.5066151  24.3958601  64.5594710
  51.3727456  24.3445694  63.3188804  58.7635727  27.4059184  62.2530577
  59.2296179  28.2387175  62.1790880  59.2143227  26.9404165  62.9575836
  48.7057562  35.4085055  70.9668822  49.4067021  36.0421538  71.1198217
  48.2352677  35.7499787  70.2064462  56.8311958  33.7503005  59.2516729
  57.1071802  33.6359600  60.1610604  55.9616457  33.3520490  59.2128903
  56.7352389  19.7739771  66.2921479  55.8215469  20.0043998  66.4603686
  57.1645491  19.8578215  67.1435511  56.5058848  27.9629663  68.7921373
  55.8530298  28.2105570  68.1373826  56.8839228  27.1493801  68.4583850
  53.4666022  37.9989356  62.8949543  53.6488416  37.1811012  63.3577295
  54.2899008  38.2157048  62.4574433  53.8008187  36.9257541  60.1564592
  54.3295954  36.4149996  59.5434754  54.0636407  36.6100071  61.0210125
  52.5546421  28.7049474  75.2787410  51.8787058  28.6043603  75.9489785
  53.3774055  28.5488688  75.7423407  44.3025280  34.9421410  67.8999925
  44.8878717  34.1965098  68.0327829  44.1050119  35.2525367  68.7836589
  47.1563935  37.9772658  62.9162367  46.4874311  38.4618785  62.4326408
  47.0176805  38.2241878  63.8305746  38.8942935  27.5127011  66.6204368
  38.9327034  26.9790601  67.4141486  38.3883228  26.9862216  66.0015345
  51.2969204  40.0116401  69.5145026  51.8487512  40.1748023  70.2794111
  51.6375397  40.6020839  68.8425051  46.2733697  22.3591551  70.1166911
  46.3375024  23.2206382  69.7044308  46.2100817  21.7465553  69.3839269
  45.7485970  24.4314684  73.7639945  46.3758008  24.0491761  74.3777469
  44.8913888  24.2128886  74.1295637  56.1480078  34.8377659  75.3693680
  56.6919982  35.4507617  74.8748635  55.5666923  35.3957237  75.8860693
  42.5251512  26.2391113  59.6958300  42.8204953  25.3301791  59.6425353
  41.6239548  26.2178852  59.3739302  54.4337591  37.9598377  66.5008708
  54.3088731  37.1588117  65.9919653  55.0916682  38.4544570  66.0122678
  46.0545759  24.3147109  65.6785848  45.3332345  24.9283077  65.5393322
  46.8439015  24.8504874  65.6002494  56.4972500  35.7607397  68.1288258
  55.5502835  35.6412748  68.0566585  56.8455273  34.8729895  68.2114520
  48.8572073  21.6501536  71.9526500  49.3806475  21.8963832  72.7152809
  48.6384406  22.4821571  71.5329637  44.2539354  23.9205210  59.8197625
  43.9252060  23.0402589  59.6372731  44.6078725  23.8652879  60.7074014
  53.5018933  35.5560113  64.3292610  53.3543895  34.6276821  64.5100180
  54.3272426  35.5780204  63.8449686  47.3681177  24.2078180  60.1873102
  47.7077250  24.7364101  59.4651711  47.8153298  24.5458586  60.9631669
  57.1053055  36.3788672  65.4157483  58.0299602  36.1731533  65.2781934
  56.9368358  36.1305073  66.3246825  50.0624618  22.5915231  69.6376171
  49.7221438  21.7923044  70.0396850  49.3563624  22.8916942  69.0653004
  50.7141090  19.6764543  68.0903494  51.5367159  19.2025022  67.9682384
  50.9579153  20.4555027  68.5902180  49.3549324  22.7052802  58.3866395
  50.0757687  23.0834055  57.8830112  48.7314628  23.4241679  58.4901373
  53.4980447  23.4097951  59.3224728  53.7144062  24.2922589  59.0213556
  53.0174514  23.0184164  58.5930370  48.2379669  26.3683664  65.8995472
  48.0924249  26.6823967  66.7919754  47.7604872  26.9868564  65.3466371
  50.0976051  23.3586212  65.9476362  50.0837620  22.4627305  65.6108660
  50.8148480  23.3656876  66.5814648  51.9502182  23.7923552  67.9929489
  51.6919960  24.7140623  67.9913820  51.4187223  23.3953987  68.6829953
  56.8948371  36.8974339  60.7719575  57.0685248  36.3320762  60.0193427
  57.3877262  37.6975234  60.5899064  42.7125331  28.9089008  68.8383133
  42.1678799  29.6848816  68.9703408  43.5904681  29.2559813  68.6802255
  49.5012947  22.2400592  61.2163932  49.6228859  21.3117238  61.4154819
  49.2114990  22.2539278  60.3042247  52.3704138  19.9255503  64.3530652
  52.3925835  19.9894836  63.3982631  52.7872197  19.0860011  64.5471158
  62.7487762  29.6610762  62.3909874  63.1918908  28.9118087  61.9928998
  61.8714272  29.6520899  62.0083606  57.8823543  36.2141104  57.8716473
  58.5774448  36.8347796  58.0903787  58.2246694  35.3636455  58.1468851
  43.4991353  28.0358905  71.7313290  42.7573089  28.1841540  72.3177921
  43.1784097  28.2967170  70.8680040  59.7814966  33.6640809  59.4003804
  60.3066291  34.0028082  58.6753124  59.6937319  32.7287825  59.2166938
  51.4435015  37.5774883  71.5293680  51.7522142  37.3324030  72.4016380
  52.2410497  37.7821521  71.0412550  51.4655627  39.7312793  63.7599057
  51.0260618  39.2389171  64.4531913  52.2163744  39.1885760  63.5191132
  43.9447966  35.9224333  63.7623685  44.7705986  35.6228105  63.3822328
  43.5942018  35.1531956  64.2113473  48.9129499  35.2750802  65.8321358
  48.2909509  34.6121507  65.5323586  49.5834366  35.3011933  65.1495006
  42.1456571  33.8410660  64.7212618  41.3088480  33.4132834  64.5396620
  42.1180217  34.0343103  65.6583410  48.9854027  23.7532590  75.4253864
  49.0342182  24.6294712  75.0431634  49.5276541  23.2109983  74.8525508
  59.4708873  34.2973713  74.7055002  58.6804416  34.2797852  74.1659501
  59.2342227  34.8362007  75.4604038  59.5906748  31.1466179  72.0187730
  59.6404753  30.9816187  72.9603253  59.4820671  30.2793438  71.6285611
  48.4743006  33.8254725  59.3079819  48.6231127  34.5090189  58.6546492
  49.2809450  33.8059815  59.8229275  56.8810510  27.1297107  73.3347037
  57.7820373  26.9903572  73.0431035  56.9558485  27.2951562  74.2745214
  51.2153315  24.5063962  72.1800223  50.3456625  24.7997528  71.9082812
  51.4512796  25.0904407  72.9007487  61.0924944  33.5663121  72.2629752
  60.8009753  33.9293101  73.0993213  60.4797076  32.8530129  72.0843084
  62.2920627  31.1316001  64.7832322  63.1267518  31.5705805  64.9469882
  62.4279756  30.6554654  63.9640568  59.3412133  28.6895735  70.7309810
  59.8166254  28.8823382  69.9228661  58.4177698  28.7454921  70.4853193
  46.2295639  29.8519903  60.3140888  45.9841681  28.9482233  60.5121098
  46.3991554  29.8537053  59.3720366  53.9192349  20.7243579  69.6965643
  54.4374293  21.4604606  69.3712132  53.5647482  21.0307572  70.5312403
  45.4991287  25.5848260  57.8127049  44.8060532  25.6592615  57.1567085
  45.2543039  24.8208604  58.3348566  54.1704943  17.1443861  65.2166540
  54.4506697  16.4767051  65.8426967  54.9555550  17.3372957  64.7041204
  51.9738412  36.3202855  56.7791566  51.4012379  36.9393043  56.3262038
  52.5471205  36.8702217  57.3131488  58.0413802  25.5661495  68.9638115
  58.9931225  25.6659593  68.9850339  57.8717252  24.7739764  69.4736200
  56.0628181  22.6517079  69.1497516  55.4678113  22.9322091  68.4544005
  55.7777878  23.1410980  69.9214257  55.1935672  36.6040006  57.9100149
  56.1266345  36.5385567  58.1133024  55.1058884  37.4396272  57.4514681
  57.8223688  35.9205876  54.8704096  57.7437320  35.5865739  55.7639854
  58.6433355  36.4127644  54.8695569  60.5201879  28.7867615  68.0780415
  60.4878200  27.8483616  68.2640099  61.1302503  28.8651652  67.3446240
  52.3585210  27.6563668  54.1207619  53.3044315  27.5269876  54.1896037
  51.9799455  26.9178330  54.5977047  60.6696368  25.5778659  68.1238698
  60.1535417  24.7937115  67.9368627  61.5536316  25.2497375  68.2885218
  58.3307095  19.3219674  64.0834511  58.1331916  19.0134762  64.9677843
  58.9406800  20.0481313  64.2132441  66.3378429  29.8483622  67.2186452
  67.0681818  29.5868910  67.7794155  65.7285375  29.1112344  67.2588520
  64.4193726  27.9891485  67.8160903  63.6926890  27.8547450  67.2077394
  64.0041013  28.2968313  68.6217621  52.2423903  31.7081414  75.5808276
  53.1626912  31.8860013  75.7748322  52.2073486  30.7637460  75.4287975
  50.5428127  25.5813645  54.0562504  49.6359583  25.2846757  54.1325218
  50.8204108  25.2843463  53.1896790  41.4606068  26.9020008  64.5061551
  41.1408852  26.0485316  64.2135925  40.9139496  27.1168586  65.2619518
  45.2385975  29.6182449  68.2231057  45.4571985  30.5499557  68.2419091
  45.6511749  29.2590423  69.0085861  52.1590193  20.1250534  60.2106745
  51.3490922  19.7797619  60.5861991  52.8474610  19.8158078  60.7994357
  54.0880741  19.2028581  61.8331042  54.6411780  19.6224034  62.4921065
  54.3250828  18.2764329  61.8753998  50.1113841  25.1915655  77.6133806
  50.0110568  26.1410012  77.5445897  49.8935383  24.8633894  76.7409876
  49.3126912  22.4400580  54.1974483  50.1746076  22.7655478  54.4570301
  49.4977256  21.6532076  53.6847549  41.3294328  30.5222919  66.4754672
  40.6357799  30.1076872  65.9624627  42.0767319  30.5643456  65.8788091
  57.4659549  21.3129106  61.3409706  56.8858218  21.9713910  60.9587759
  57.1995481  20.4906451  60.9297124  55.9163115  20.7134164  63.5431027
  56.4162893  20.8250698  62.7345345  56.5598723  20.4095217  64.1831835
  49.9745111  28.6212794  76.4298868  49.4912192  29.4213154  76.6362757
  50.0606050  28.6320738  75.4766312  43.2431070  30.4541173  64.3520687
  43.2201758  30.5528860  63.4002570  43.5531707  31.3006324  64.6737853
  45.9018448  32.5117328  68.4667301  46.8561702  32.4801271  68.3997233
  45.7030972  32.0507952  69.2817527  46.4917830  31.0818444  71.0338099
  47.3110719  31.5762523  71.0572936  46.7654638  30.1650412  71.0055667
  56.2484427  23.4729197  60.3966055  55.3610282  23.7578847  60.1786249
  56.6638416  23.3122960  59.5493331  59.5998963  23.4975718  64.1120394
  60.3759353  23.9872170  64.3845011  58.8747097  23.9233772  64.5692263
  62.0371521  24.2103337  65.1694334  62.6316012  23.9699073  64.4587643
  62.1098105  23.4910467  65.7967871  44.2568677  38.0536948  65.4837499
  44.1223145  37.2937349  64.9175497  43.8400739  38.7777848  65.0166288
  55.3927640  33.2373871  54.4914075  56.0963490  33.4423874  55.1071730
  54.6690289  33.8050633  54.7563158  56.2225450  28.9883733  60.6116345
  56.1660652  29.4452284  59.7723977  56.7753793  28.2274417  60.4339187
  60.0330256  24.7773464  61.4366464  59.7767190  24.3770100  62.2674672
  59.4083124  25.4917258  61.3116603  64.3442594  27.5169538  63.9437756
  63.7842152  27.5862727  64.7169318  63.7386097  27.3410522  63.2237252
  47.4137803  38.9506265  65.6955942  47.2970187  39.8951697  65.5934632
  46.5930249  38.6479826  66.0841741  57.3014337  33.6756400  56.5412535
  58.1359941  33.2437599  56.3590009  57.1398680  33.5038414  57.4689429
  56.9560230  30.1788514  57.9068874  56.9009033  30.0132785  56.9657318
  56.3306285  30.8864547  58.0631064  41.7452745  25.4156578  71.7330296
  42.3911608  24.9055532  72.2217521  41.5369896  26.1525260  72.3073721
  54.2706137  32.4837426  77.2322437  55.1397296  32.6578078  76.8709072
  53.7912888  33.3031842  77.1098166  50.2656355  19.6796623  57.4854192
  50.2535025  20.6238463  57.6422463  51.1579777  19.4966768  57.1913654
  48.4392317  39.6034527  68.9111870  49.3419564  39.6358137  69.2278365
  48.2129687  38.6734978  68.9258206  50.1945919  38.3565513  65.5721949
  49.2441550  38.3567375  65.4586321  50.4978405  37.6098248  65.0557984
  54.0808475  16.2739399  61.7400129  53.3140870  15.7197886  61.8856811
  54.4919180  16.3461268  62.6014281  46.0850236  22.5624195  75.8305310
  46.9481697  22.2061000  76.0408635  45.5115646  22.2238090  76.5180715
  65.9298613  44.1926052  66.6367711  66.5677023  44.0732799  65.9331051
  65.8119455  45.1406896  66.6955664  62.7388319  44.1453480  66.5729236
  62.4006830  44.0294544  65.6849771  63.6078087  43.7444645  66.5530242
  63.2208102  45.2988331  72.5315442  63.2096743  44.9041130  71.6595945
  63.3828741  44.5654404  73.1249213  64.1774693  49.6659924  57.8740592
  63.5262673  50.2514004  57.4874606  64.9719056  50.1966119  57.9335629
  58.1030320  46.7549061  58.2727726  58.8761196  46.2078048  58.1340602
  58.4555719  47.6193310  58.4842188  60.8671570  45.4602292  68.0695985
  61.4635142  45.2358314  67.3552948  60.9246541  44.7187037  68.6721433
  65.4839881  41.9177505  63.7120919  66.2702970  41.4996929  63.3611336
  65.7478585  42.8223598  63.8802568  65.6549958  47.3550356  58.4109576
  65.0195791  47.4284982  59.1230481  65.3247365  47.9443955  57.7328655
  70.8848308  41.8552739  64.6153898  71.6173480  41.2851955  64.8491727
  70.1287664  41.4674339  65.0560403  60.1592887  44.8169833  58.1070551
  60.0429145  44.1414736  58.7751635  60.2695147  44.3302207  57.2902704
  62.5024428  44.2779980  61.8117240  62.1382635  43.7510601  62.5230162
  63.3591544  43.8878449  61.6383726  68.4073729  35.5674313  69.0748506
  68.0757053  36.4369724  68.8509721  67.8119342  35.2510597  69.7542537
  62.1429915  39.3069880  56.8078589  62.3104317  40.1750116  57.1749060
  61.9527084  39.4697162  55.8839878  64.9005248  47.7686859  68.4744419
  64.6005971  48.6711898  68.3660226  64.5556308  47.5019042  69.3265572
  68.3002392  40.2869399  66.1541857  67.3919269  40.2184807  65.8600618
  68.2489988  40.7641344  66.9823682  62.1219136  41.7627537  57.7925256
  62.0018761  42.2084588  58.6310736  61.4271724  42.1112855  57.2338794
  62.3743258  41.7059044  74.0976754  61.5976592  42.2652965  74.0879618
  63.0133821  42.1915827  74.6191624  70.1664038  38.4885837  67.9319730
  69.5238418  38.7818370  67.2859525  69.6618967  38.3738758  68.7372927
  67.8204202  42.2349010  58.6205590  68.7322058  42.4676397  58.4453287
  67.3113849  42.8186055  58.0580668  60.6289630  44.5144498  73.6594721
  61.3704314  45.0529542  73.3829544  59.9226615  45.1410787  73.8166273
  66.1044970  46.6573638  72.2566882  66.5128326  46.2156049  71.5121515
  65.3822231  46.0826266  72.5101075  62.4576040  41.5946245  69.6300439
  63.3037235  42.0185659  69.7735088  62.3974677  40.9379869  70.3239002
  66.4273784  47.2174829  66.0119171  65.7982647  47.3820543  65.3095239
  66.0399446  47.6316438  66.7830135  70.3063016  48.1529267  63.3663535
  69.6214054  48.5328168  62.8160568  70.3906865  48.7624593  64.0995483
  65.6075485  39.2550613  71.2881613  65.3636417  40.0092674  70.7515889
  65.8835415  39.6335961  72.1228860  67.5613948  45.7989226  69.9658878
  67.7730843  46.4420986  69.2893260  67.5143696  44.9651542  69.4980809
  65.1640177  38.4107046  66.8695451  64.3024656  38.7088300  67.1612188
  65.1902611  38.6277445  65.9376483  59.3650994  41.6684146  74.4610031
  58.7349654  42.3500427  74.6945428  59.2587082  41.5567228  73.5163169
  68.6759776  48.6761181  68.1381236  69.4977219  48.2741369  67.8563917
  68.6722179  48.5729415  69.0897352  56.6110711  41.7000521  62.3459432
  55.8141875  41.8119216  62.8642927  56.3836304  42.0387174  61.4800322
  76.7665769  45.0199930  64.4866207  76.0129477  44.4507328  64.3310212
  76.9013310  44.9862594  65.4336842  62.1564397  49.8913332  60.1620927
  62.0210072  50.7364868  60.5905774  62.6974209  50.0932610  59.3986860
  58.6431736  35.9704912  76.8235282  58.2498682  35.4171110  77.4982926
  59.4597877  36.2815490  77.2141799  61.5599697  37.3862791  74.4155538
  62.3009411  37.9869944  74.3360001  61.7917620  36.6440429  73.8573581
  56.7041035  42.5719158  72.6933768  56.5894551  41.6704415  72.9940867
  55.8485553  42.8182855  72.3418585  65.8814111  50.7939698  72.3202670
  65.8632587  51.6148580  71.8282939  66.8034031  50.6693774  72.5452811
  62.3387165  48.3083828  73.1626178  62.8715502  47.5472116  72.9325486
  61.8101246  48.0157480  73.9050333  65.5056860  33.4143894  68.6919820
  65.1621130  34.3045536  68.6158931  65.8735823  33.2245552  67.8289405
  65.4707143  43.4052505  57.1992255  64.9553766  44.1757110  57.4380643
  65.1984452  42.7317641  57.8225317  63.0554254  38.2502206  62.2577494
  62.1995850  37.8609056  62.0783132  63.4681206  38.3294167  61.3977279
  64.5853401  35.7848549  66.6569053  64.0818196  35.7478684  65.8436859
  64.8784008  36.6941292  66.7165710  60.8296287  35.8687279  65.6635235
  61.6949283  35.6730087  65.3041125  60.8973796  35.6397631  66.5904592
  70.4441417  46.1584860  59.1345429  69.6670860  45.8196019  58.6900591
  71.1232898  46.1637483  58.4600394  65.2593446  41.2779597  59.0252036
  64.9543582  41.5925746  59.8762180  66.2123888  41.3561017  59.0679369
  63.7039878  47.4369820  60.6744990  63.1761240  46.7022580  60.3618228
  63.2027381  48.2144497  60.4284959  68.6832724  45.6318841  65.7912037
  68.0256399  46.3218102  65.8792165  69.4873123  46.0215273  66.1346023
  58.4358606  38.0989487  63.0351602  59.0102358  37.8764668  62.3024795
  59.0229588  38.1678181  63.7880203  67.4938183  43.9863214  63.8415978
  68.0070065  44.6193205  64.3437688  68.1439407  43.3864409  63.4759338
  58.7628193  40.1293948  57.0547487  57.9265505  40.4668634  57.3756762
  58.6232962  39.9942928  56.1174624  60.7381273  34.9730736  61.7626671
  60.0845686  34.6579753  61.1383286  60.6961748  34.3506476  62.4886494
  64.7560557  53.9647538  56.5976650  64.0822256  54.2679235  57.2061607
  65.1426379  54.7676618  56.2482107  63.9719014  41.4612669  66.0874319
  63.0541575  41.6827616  65.9296007  64.3879157  41.5358980  65.2286026
  64.7554062  42.8604085  61.2176999  65.5025880  43.3725482  60.9084121
  65.0245651  42.5388138  62.0781393  63.0280712  45.3562626  58.2003954
  62.1191931  45.0721658  58.2976423  63.0575796  45.7761704  57.3407260
  68.2599979  48.9669215  61.9695121  67.8062306  48.1260125  62.0260312
  67.6293946  49.6030613  62.3069901  67.2032899  39.8961201  63.1995789
  66.4655655  39.3838587  63.5306031  67.4559672  39.4561583  62.3879065
  66.7032918  50.8045712  62.9044939  66.9955893  51.3650769  62.1857305
  67.2131539  51.0974273  63.6598098  67.3044526  32.6737453  63.7937558
  67.6103403  31.8134817  63.5063473  68.0297131  33.2655073  63.5936552
  61.5765606  42.9691246  64.3013749  61.6314216  42.0165083  64.2256225
  60.7656808  43.1250685  64.7855047  59.5157966  41.5868306  62.0604128
  58.7025831  41.8862476  62.4669320  60.0116960  41.1923995  62.7778610
  65.1132177  42.0510130  70.8919022  65.4681565  42.2781604  71.7513487
  65.7604309  42.3828507  70.2696277  70.8429914  45.1728566  61.5968351
  70.7047813  45.3630162  60.6689540  70.4866133  45.9347949  62.0536402
  59.0072040  39.1586661  67.6765363  59.6471420  39.0175421  66.9788326
  58.1749571  38.8721175  67.3003965  70.8699294  47.2405093  66.6079622
  71.3035801  47.1480382  67.4562676  71.5830875  47.2162594  65.9699638
  56.0915108  42.6032174  59.8660108  55.1612696  42.5416629  60.0830070
  56.1872580  42.0808126  59.0696749  56.0100657  39.1286986  62.4538349
  56.2707474  40.0432320  62.3447510  56.8317829  38.6611429  62.6034962
  57.4825582  40.5424744  69.6237174  58.1548636  40.3342106  68.9749823
  56.6555369  40.3446830  69.1842406  71.7314843  47.2828794  69.1412508
  71.9250734  48.1874604  69.3871782  71.6315462  46.8236213  69.9751093
  63.3851154  37.1686684  71.6402835  62.7379069  37.8676634  71.5467311
  64.1552170  37.6022828  72.0079083  66.7929952  47.4335537  74.7153388
  66.6415459  47.2046088  73.7983472  66.7834632  48.3906138  74.7284733
  63.5615289  45.0067449  69.6999655  64.4907349  45.1578609  69.5268622
  63.1406319  45.0951470  68.8448301  62.9551772  54.1327210  58.8123729
  63.1303528  53.6615253  59.6269351  62.2684560  54.7592976  59.0404989
  66.8468027  45.7555751  55.1324090  66.2297198  45.0302579  55.0357142
  66.3784516  46.5165111  54.7891164  60.5135380  43.5287306  69.8723291
  61.2234999  42.8880498  69.8309909  60.4704688  43.7800201  70.7949472
  68.5022159  50.4654659  72.7929870  68.4434705  49.7813879  72.1260453
  68.9041677  51.2073649  72.3410496  59.2264314  40.5152524  71.6918930
  58.6901671  40.0643262  72.3440527  58.6381023  40.6498433  70.9489395
  58.6366573  39.9741175  54.2545394  57.7596039  39.8529976  53.8907641
  59.1124326  39.1827253  54.0024283  68.5039566  48.4294243  71.0243850
  67.6166345  48.0920165  71.1470249  69.0738117  47.6977274  71.2612615
  54.9603435  39.6508531  68.7771925  54.8761624  39.0434201  68.0422335
  54.1386142  40.1417550  68.7781421  65.1327149  38.1362095  64.1442120
  65.6295849  37.3832057  63.8243190  64.3614131  38.1726412  63.5785329
  72.9856907  43.8402461  65.7860411  72.9746783  44.7227176  65.4154344
  72.1174286  43.4874011  65.5914948  66.2156930  46.8933782  61.7180543
  65.2813209  47.0135245  61.5485248  66.3933598  45.9906249  61.4540553
  61.7162118  40.2779478  63.8713804  61.3459905  39.7250518  64.5594710
  62.2121210  39.6737611  63.3188804  69.6029481  42.7351101  62.2530577
  70.0689933  43.5679093  62.1790880  70.0536982  42.2696083  62.9575836
  67.6705712  49.0794923  59.2516729  67.9465556  48.9651517  60.1610604
  66.8010211  48.6812408  59.2128903  67.5746144  35.1031688  66.2921479
  66.6609224  35.3335915  66.4603686  68.0039245  35.1870133  67.1435511
  67.3452602  43.2921580  68.7921373  66.6924053  43.5397488  68.1373826
  67.7232982  42.4785719  68.4583850  64.6401942  52.2549459  60.1564592
  65.1689708  51.7441913  59.5434754  64.9030161  51.9391989  61.0210125
  63.3940175  44.0341392  75.2787410  62.7180813  43.9335521  75.9489785
  64.2167809  43.8780605  75.7423407  49.7336689  42.8418928  66.6204368
  49.7720789  42.3082519  67.4141486  49.2276982  42.3154134  66.0015345
  57.1127452  37.6883469  70.1166911  57.1768778  38.5498300  69.7044308
  57.0494572  37.0757470  69.3839269  56.5879724  39.7606601  73.7639945
  57.2151763  39.3783679  74.3777469  55.7307643  39.5420803  74.1295637
  66.9873833  50.1669576  75.3693680  67.5313737  50.7799535  74.8748635
  66.4060678  50.7249155  75.8860693  53.3645267  41.5683030  59.6958300
  53.6598708  40.6593709  59.6425353  52.4633303  41.5470770  59.3739302
  65.2731346  53.2890294  66.5008708  65.1482485  52.4880034  65.9919653
  65.9310437  53.7836488  66.0122678  56.8939514  39.6439027  65.6785848
  56.1726100  40.2574995  65.5393322  57.6832770  40.1796792  65.6002494
  67.3366254  51.0899315  68.1288258  66.3896590  50.9704666  68.0566585
  67.6849027  50.2021813  68.2114520  59.6965827  36.9793453  71.9526500
  60.2200229  37.2255750  72.7152809  59.4778161  37.8113488  71.5329637
  55.0933108  39.2497128  59.8197625  54.7645815  38.3694507  59.6372731
  55.4472479  39.1944797  60.7074014  58.2074932  39.5370098  60.1873102
  58.5471004  40.0656019  59.4651711  58.6547052  39.8750504  60.9631669
  67.9446809  51.7080590  65.4157483  68.8693357  51.5023451  65.2781934
  67.7762113  51.4596991  66.3246825  60.9018372  37.9207149  69.6376171
  60.5615193  37.1214962  70.0396850  60.1957379  38.2208859  69.0653004
  61.5534844  35.0056461  68.0903494  62.3760914  34.5316939  67.9682384
  61.7972908  35.7846945  68.5902180  60.1943079  38.0344719  58.3866395
  60.9151441  38.4125972  57.8830112  59.5708383  38.7533596  58.4901373
  64.3374202  38.7389868  59.3224728  64.5537816  39.6214506  59.0213556
  63.8568269  38.3476082  58.5930370  59.0773423  41.6975582  65.8995472
  58.9318004  42.0115885  66.7919754  58.5998627  42.3160482  65.3466371
  60.9369806  38.6878130  65.9476362  60.9231375  37.7919223  65.6108660
  61.6542234  38.6948793  66.5814648  62.7895937  39.1215470  67.9929489
  62.5313714  40.0432540  67.9913820  62.2580977  38.7245904  68.6829953
  67.7342125  52.2266257  60.7719575  67.9079003  51.6612679  60.0193427
  68.2271017  53.0267152  60.5899064  60.3406702  37.5692510  61.2163932
  60.4622613  36.6409156  61.4154819  60.0508744  37.5831196  60.3042247
  63.2097892  35.2547420  64.3530652  63.2319589  35.3186753  63.3982631
  63.6265951  34.4151929  64.5471158  73.5881517  44.9902680  62.3909874
  74.0312663  44.2410005  61.9928998  72.7108027  44.9812816  62.0083606
  68.7217298  51.5433021  57.8716473  69.4168202  52.1639714  58.0903787
  69.0640448  50.6928373  58.1468851  70.6208721  48.9932727  59.4003804
  71.1460045  49.3320000  58.6753124  70.5331074  48.0579742  59.2166938
  59.8247781  39.0824507  75.4253864  59.8735937  39.9586630  75.0431634
  60.3670296  38.5401900  74.8525508  70.3102627  49.6265631  74.7055002
  69.5198171  49.6089769  74.1659501  70.0735982  50.1653924  75.4604038
  70.4300502  46.4758097  72.0187730  70.4798507  46.3108104  72.9603253
  70.3214425  45.6085356  71.6285611  59.3136761  49.1546643  59.3079819
  59.4624881  49.8382107  58.6546492  60.1203204  49.1351733  59.8229275
  67.7204264  42.4589025  73.3347037  68.6214127  42.3195490  73.0431035
  67.7952239  42.6243480  74.2745214  62.0547070  39.8355880  72.1800223
  61.1850379  40.1289446  71.9082812  62.2906550  40.4196325  72.9007487
  71.9318699  48.8955038  72.2629752  71.6403507  49.2585019  73.0993213
  71.3190830  48.1822047  72.0843084  73.1314381  46.4607918  64.7832322
  73.9661273  46.8997722  64.9469882  73.2673510  45.9846571  63.9640568
  70.1805887  44.0187653  70.7309810  70.6560009  44.2115299  69.9228661
  69.2571453  44.0746839  70.4853193  57.0689394  45.1811820  60.3140888
  56.8235436  44.2774150  60.5121098  57.2385308  45.1828971  59.3720366
  64.7586104  36.0535497  69.6965643  65.2768048  36.7896524  69.3712132
  64.4041236  36.3599490  70.5312403  56.3385041  40.9140178  57.8127049
  55.6454286  40.9884533  57.1567085  56.0936793  40.1500521  58.3348566
  65.0098698  32.4735779  65.2166540  65.2900452  31.8058968  65.8426967
  65.7949305  32.6664875  64.7041204  68.8807556  40.8953413  68.9638115
  69.8324979  40.9951511  68.9850339  68.7111007  40.1031682  69.4736200
  66.9021936  37.9808996  69.1497516  66.3071868  38.2614009  68.4544005
  66.6171632  38.4702897  69.9214257  66.0329426  51.9331923  57.9100149
  66.9660099  51.8677485  58.1133024  65.9452639  52.7688190  57.4514681
  68.6617443  51.2497794  54.8704096  68.5831074  50.9157657  55.7639854
  69.4827110  51.7419561  54.8695569  71.3595634  44.1159533  68.0780415
  71.3271954  43.1775534  68.2640099  71.9696258  44.1943570  67.3446240
  71.5090122  40.9070576  68.1238698  70.9929171  40.1229033  67.9368627
  72.3930071  40.5789293  68.2885218  69.1700849  34.6511592  64.0834511
  68.9725670  34.3426680  64.9677843  69.7800555  35.3773231  64.2132441
  77.1772184  45.1775540  67.2186452  77.9075572  44.9160828  67.7794155
  76.5679129  44.4404262  67.2588520  75.2587481  43.3183402  67.8160903
  74.5320645  43.1839367  67.2077394  74.8434768  43.6260231  68.6217621
  63.0817657  47.0373332  75.5808276  64.0020667  47.2151931  75.7748322
  63.0467240  46.0929377  75.4287975  62.9983948  35.4542452  60.2106745
  62.1884676  35.1089537  60.5861991  63.6868365  35.1449996  60.7994357
  64.9274496  34.5320499  61.8331042  65.4805535  34.9515952  62.4921065
  65.1644582  33.6056247  61.8753998  60.9507595  40.5207572  77.6133806
  60.8504322  41.4701929  77.5445897  60.7329137  40.1925811  76.7409876
  60.1520667  37.7692497  54.1974483  61.0139831  38.0947396  54.4570301
  60.3371011  36.9823993  53.6847549  68.3053303  36.6421024  61.3409706
  67.7251972  37.3005828  60.9587759  68.0389236  35.8198368  60.9297124
  66.7556869  36.0426082  63.5431027  67.2556648  36.1542616  62.7345345
  67.3992477  35.7387134  64.1831835  60.8138865  43.9504711  76.4298868
  60.3305947  44.7505071  76.6362757  60.8999804  43.9612656  75.4766312
  67.0878181  38.8021114  60.3966055  66.2004036  39.0870765  60.1786249
  67.5032170  38.6414878  59.5493331  70.4392717  38.8267635  64.1120394
  71.2153107  39.3164088  64.3845011  69.7140851  39.2525689  64.5692263
  72.8765276  39.5395254  65.1694334  73.4709767  39.2990990  64.4587643
  72.9491860  38.8202385  65.7967871  66.2321395  48.5665789  54.4914075
  66.9357245  48.7715791  55.1071730  65.5084043  49.1342551  54.7563158
  67.0619205  44.3175650  60.6116345  67.0054406  44.7744202  59.7723977
  67.6147547  43.5566335  60.4339187  70.8724011  40.1065382  61.4366464
  70.6160945  39.7062018  62.2674672  70.2476879  40.8209176  61.3116603
  75.1836349  42.8461455  63.9437756  74.6235907  42.9154645  64.7169318
  74.5779852  42.6702440  63.2237252  68.1408092  49.0048318  56.5412535
  68.9753696  48.5729517  56.3590009  67.9792435  48.8330332  57.4689429
  67.7953984  45.5080431  57.9068874  67.7402788  45.3424703  56.9657318
  67.1700039  46.2156464  58.0631064  65.1099891  47.8129343  77.2322437
  65.9791051  47.9869996  76.8709072  64.6306643  48.6323760  77.1098166
  61.1050110  35.0088540  57.4854192  61.0928779  35.9530380  57.6422463
  61.9973531  34.8258686  57.1913654  64.9202229  31.6031317  61.7400129
  64.1534625  31.0489804  61.8856811  65.3312934  31.6753186  62.6014281
  56.9243990  37.8916113  75.8305310  57.7875452  37.5352918  76.0408635
  56.3509401  37.5530008  76.5180715  76.7692367  59.5217969  66.6367711
  77.4070777  59.4024717  65.9331051  76.6513210  60.4698813  66.6955664
  73.5782073  59.4745397  66.5729236  73.2400585  59.3586462  65.6849771
  74.4471842  59.0736562  66.5530242  69.4368889  61.3280874  62.5626127
  68.8733754  61.2370811  61.7942415  69.3221284  60.5080778  63.0428620
  74.0601856  60.6280249  72.5315442  74.0490497  60.2333047  71.6595945
  74.2222496  59.8946322  73.1249213  66.9833321  62.8232065  65.4010347
  67.7754613  62.4822890  64.9856647  67.2229971  62.9327040  66.3212501
  75.0168448  64.9951841  57.8740592  74.3656428  65.5805922  57.4874606
  75.8112811  65.5258036  57.9335629  68.9424075  62.0840979  58.2727726
  69.7154951  61.5369966  58.1340602  69.2949474  62.9485228  58.4842188
  70.7809117  63.4117361  71.4794626  70.4898983  64.3162992  71.3641292
  71.4166102  63.4533888  72.1938695  71.7065324  60.7894209  68.0695985
  72.3028897  60.5650232  67.3552948  71.7640296  60.0478955  68.6721433
  71.2790353  58.2433645  55.9046176  71.5315873  57.7215166  55.1429639
  70.3414912  58.0799790  56.0072860  76.3233636  57.2469423  63.7120919
  77.1096725  56.8288846  63.3611336  76.5872340  58.1515515  63.8802568
  76.4943713  62.6842273  58.4109576  75.8589546  62.7576900  59.1230481
  76.1641119  63.2735872  57.7328655  81.7242063  57.1844656  64.6153898
  82.4567235  56.6143873  64.8491727  80.9681418  56.7966257  65.0560403
  70.9986641  60.1461751  58.1070551  70.8822900  59.4706654  58.7751635
  71.1088901  59.6594125  57.2902704  73.3418182  59.6071898  61.8117240
  72.9776390  59.0802519  62.5230162  74.1985298  59.2170367  61.6383726
  79.2467483  50.8966230  69.0748506  78.9150808  51.7661641  68.8509721
  78.6513096  50.5802514  69.7542537  72.9823669  54.6361797  56.8078589
  73.1498072  55.5042034  57.1749060  72.7920838  54.7989079  55.8839878
  75.7399003  63.0978776  68.4744419  75.4399726  64.0003815  68.3660226
  75.3950062  62.8310960  69.3265572  69.1911484  59.5492573  64.5081124
  68.2661981  59.4168787  64.7158815  69.4395897  60.3286792  65.0051066
  79.1396146  55.6161317  66.1541857  78.2313024  55.5476725  65.8600618
  79.0883742  56.0933262  66.9823682  72.9612890  57.0919455  57.7925256
  72.8412515  57.5376506  58.6310736  72.2665479  57.4404773  57.2338794
  66.5520295  59.1925847  65.3424913  66.6812676  59.4460326  66.2564324
  65.8717746  59.7853555  65.0229568  70.7219782  69.8623097  61.4415387
  70.6443812  70.8130922  61.5203867  70.1181426  69.5168969  62.0990313
  73.2137012  57.0350962  74.0976754  72.4370346  57.5944882  74.0879618
  73.8527575  57.5207745  74.6191624  81.0057793  53.8177755  67.9319730
  80.3632173  54.1110288  67.2859525  80.5012721  53.7030675  68.7372927
  78.6597956  57.5640928  58.6205590  79.5715813  57.7968315  58.4453287
  78.1507603  58.1477972  58.0580668  71.4683384  59.8436416  73.6594721
  72.2098069  60.3821459  73.3829544  70.7620370  60.4702704  73.8166273
  76.9438724  61.9865556  72.2566882  77.3522080  61.5447967  71.5121515
  76.2215986  61.4118184  72.5101075  73.2969794  56.9238163  69.6300439
  74.1430989  57.3477576  69.7735088  73.2368432  56.2671787  70.3239002
  77.2667539  62.5466747  66.0119171  76.6376401  62.7112461  65.3095239
  76.8793201  62.9608356  66.7830135  81.1456771  63.4821184  63.3663535
  80.4607809  63.8620086  62.8160568  81.2300620  64.0916511  64.0995483
  76.4469239  54.5842531  71.2881613  76.2030171  55.3384592  70.7515889
  76.7229170  54.9627879  72.1228860  78.4007702  61.1281143  69.9658878
  78.6124597  61.7712903  69.2893260  78.3537450  60.2943460  69.4980809
  76.0033931  53.7398964  66.8695451  75.1418410  54.0380218  67.1612188
  76.0296366  53.9569363  65.9376483  72.8195501  62.2841155  63.2769256
  73.2833846  62.5628858  62.4873879  72.5552299  61.3824599  63.0942347
  69.7119582  61.8312636  66.2149020  70.2820939  62.2599905  65.5766504
  70.3027693  61.5495221  66.9133205  71.7564387  58.4064307  60.0858821
  72.4588430  58.8585351  60.5532748  71.4245015  57.7648126  60.7138715
  70.2044748  56.9976064  74.4610031  69.5743409  57.6792345  74.6945428
  70.0980836  56.8859145  73.5163169  65.4989721  56.6647860  65.3875955
  64.7088775  56.9205388  64.9116066  65.9900968  57.4796198  65.4927996
  79.5153530  64.0053099  68.1381236  80.3370974  63.6033286  67.8563917
  79.5115933  63.9021333  69.0897352  67.4504466  57.0292439  62.3459432
  66.6535629  57.1411133  62.8642927  67.2230058  57.3679091  61.4800322
  73.2810134  63.5537142  70.2941946  73.3454566  64.0157549  71.1300118
  72.5721057  62.9234507  70.4224256  87.6059523  60.3491847  64.4866207
  86.8523232  59.7799245  64.3310212  87.7407064  60.3154512  65.4336842
  72.9958151  65.2205250  60.1620927  72.8603826  66.0656785  60.5905774
  73.5367964  65.4224527  59.3986860  69.4825491  51.2996830  76.8235282
  69.0892436  50.7463028  77.4982926  70.2991631  51.6107408  77.2141799
  66.4487549  62.7380688  60.7348852  66.9612069  63.5323938  60.8854416
  67.1010261  62.0406978  60.6682453  68.2582433  65.8546444  62.8171605
  68.4349062  66.7764409  62.6292589  69.0539267  65.5404863  63.2465985
  72.3993452  52.7154709  74.4155538  73.1403165  53.3161862  74.3360001
  72.6311375  51.9732346  73.8573581  67.5434790  57.9011076  72.6933768
  67.4288305  56.9996333  72.9940867  66.6879308  58.1474773  72.3418585
  74.6226628  65.8428816  74.2921269  74.1790482  65.0565195  73.9742173
  75.2843841  66.0307967  73.6265160  69.3813749  67.3724618  68.8181947
  69.9321174  67.2441681  68.0458941  68.5425225  67.6719507  68.4676840
  76.7207866  66.1231616  72.3202670  76.7026341  66.9440497  71.8282939
  77.6427786  65.9985691  72.5452811  73.1780920  63.6375746  73.1626178
  73.7109257  62.8764034  72.9325486  72.6495001  63.3449397  73.9050333
  76.3450615  48.7435812  68.6919820  76.0014884  49.6337453  68.6158931
  76.7129577  48.5537469  67.8289405  64.4136465  61.0669342  61.5108422
  65.2511687  61.4766350  61.2942130  64.5914733  60.1268784  61.4808616
  76.3100898  58.7344423  57.1992255  75.7947521  59.5049027  57.4380643
  76.0378206  58.0609559  57.8225317  73.8948009  53.5794123  62.2577494
  73.0389605  53.1900974  62.0783132  74.3074960  53.6586084  61.3977279
  75.4247155  51.1140467  66.6569053  74.9211951  51.0770602  65.8436859
  75.7177762  52.0233209  66.7165710  71.6690041  51.1979196  65.6635235
  72.5343038  51.0022005  65.3041125  71.7367550  50.9689548  66.5904592
  81.2835172  61.4876777  59.1345429  80.5064614  61.1487937  58.6900591
  81.9626653  61.4929400  58.4600394  76.0987201  56.6071515  59.0252036
  75.7937336  56.9217664  59.8762180  77.0517643  56.6852935  59.0679369
  74.5433633  62.7661738  60.6744990  74.0154994  62.0314498  60.3618228
  74.0421135  63.5436414  60.4284959  79.5226479  60.9610759  65.7912037
  78.8650153  61.6510020  65.8792165  80.3266878  61.3507191  66.1346023
  69.2752360  53.4281404  63.0351602  69.8496112  53.2056586  62.3024795
  69.8623343  53.4970099  63.7880203  78.3331937  59.3155131  63.8415978
  78.8463819  59.9485123  64.3437688  78.9833161  58.7156327  63.4759338
  69.6021947  55.4585865  57.0547487  68.7659260  55.7960552  57.3756762
  69.4626717  55.3234845  56.1174624  71.5775028  50.3022653  61.7626671
  70.9239440  49.9871670  61.1383286  71.5355502  49.6798394  62.4886494
  72.6886233  60.5841948  53.6779963  71.7813294  60.3531202  53.8771112
  73.1857265  59.7879568  53.8653945  75.5954312  69.2939456  56.5976650
  74.9216010  69.5971152  57.2061607  75.9820134  70.0968536  56.2482107
  74.8112768  56.7904587  66.0874319  73.8935330  57.0119534  65.9296007
  75.2272912  56.8650897  65.2286026  75.5947816  58.1896003  61.2176999
  76.3419635  58.7017400  60.9084121  75.8639406  57.8680055  62.0781393
  73.8674466  60.6854543  58.2003954  72.9585685  60.4013576  58.2976423
  73.8969550  61.1053622  57.3407260  79.0993734  64.2961133  61.9695121
  78.6456061  63.4552043  62.0260312  78.4687700  64.9322531  62.3069901
  78.0426653  55.2253119  63.1995789  77.3049410  54.7130505  63.5306031
  78.2953427  54.7853500  62.3879065  77.5426673  66.1337629  62.9044939
  77.8349647  66.6942687  62.1857305  78.0525293  66.4266190  63.6598098
  78.1438280  48.0029371  63.7937558  78.4497157  47.1426734  63.5063473
  78.8690885  48.5946991  63.5936552  64.4362637  58.4060057  62.1819156
  64.2387036  57.8129418  61.4570222  63.8809301  58.1012268  62.8995095
  72.4159360  58.2983164  64.3013749  72.4707970  57.3457000  64.2256225
  71.6050562  58.4542603  64.7855047  73.5650554  62.2263287  55.5392032
  73.1269984  61.5099146  55.0797669  74.3060995  62.4539402  54.9777123
  70.3551720  56.9160224  62.0604128  69.5419586  57.2154394  62.4669320
  70.8510714  56.5215912  62.7778610  72.5060298  66.9117981  63.9938392
  72.4636477  67.1378827  63.0646924  73.4222997  66.6781355  64.1424194
  75.9525932  57.3802048  70.8919022  76.3075320  57.6073521  71.7513487
  76.5998063  57.7120425  70.2696277  81.6823669  60.5020484  61.5968351
  81.5441567  60.6922080  60.6689540  81.3259888  61.2639867  62.0536402
  69.8465795  54.4878579  67.6765363  70.4865174  54.3467338  66.9788326
  69.0143325  54.2013092  67.3003965  81.7093048  62.5697011  66.6079622
  82.1429555  62.4772300  67.4562676  82.4224629  62.5454511  65.9699638
  70.6226099  63.7881010  63.7900355  71.4166697  63.2931330  63.5882930
  69.9117791  63.2598873  63.4268061  75.4420943  66.1699105  68.1412723
  75.4957966  66.7390041  68.9090439  74.5735725  66.3400990  67.7766760
  66.9308862  57.9324091  59.8660108  66.0006450  57.8708547  60.0830070
  67.0266334  57.4100044  59.0696749  66.8494411  54.4578904  62.4538349
  67.1101229  55.3724237  62.3447510  67.6711584  53.9903347  62.6034962
  68.3219337  55.8716661  69.6237174  68.9942390  55.6634023  68.9749823
  67.4949123  55.6738747  69.1842406  82.5708598  62.6120712  69.1412508
  82.7644488  63.5166522  69.3871782  82.4709216  62.1528131  69.9751093
  74.2244909  52.4978602  71.6402835  73.5772824  53.1968552  71.5467311
  74.9945924  52.9314746  72.0079083  77.6323707  62.7627454  74.7153388
  77.4809213  62.5338006  73.7983472  77.6228386  63.7198056  74.7284733
  74.4009043  60.3359367  69.6999655  75.3301103  60.4870527  69.5268622
  73.9800073  60.4243388  68.8448301  73.1997375  64.3610032  67.4698192
  73.0608461  63.9928816  68.3424130  72.4111971  64.8757671  67.2982150
  73.7945527  69.4619128  58.8123729  73.9697282  68.9907171  59.6269351
  73.1078315  70.0884894  59.0404989  74.7502590  63.7391634  64.8587030
  74.4152423  63.6992404  65.7544680  74.2506536  63.0736350  64.3857440
  68.7246834  59.1459264  70.3839611  68.5866632  58.4139503  70.9851150
  69.6351757  59.0568164  70.1023799  77.6861782  61.0847669  55.1324090
  77.0690952  60.3594497  55.0357142  77.2178270  61.8457029  54.7891164
  71.3529135  58.8579224  69.8723291  72.0628753  58.2172416  69.8309909
  71.3098443  59.1092118  70.7949472  79.3415913  65.7946577  72.7929870
  79.2828459  65.1105797  72.1260453  79.7435432  66.5365567  72.3410496
  70.0658069  55.8444441  71.6918930  69.5295426  55.3935180  72.3440527
  69.4774777  55.9790350  70.9489395  68.3606612  72.6108491  65.5863589
  68.6003210  73.2427015  66.2642608  67.5175809  72.2596531  65.8728948
  69.4760328  55.3033093  54.2545394  68.5989794  55.1821894  53.8907641
  69.9518081  54.5119171  54.0024283  79.3433321  63.7586161  71.0243850
  78.4560099  63.4212083  71.1470249  79.9131872  63.0269192  71.2612615
  65.7997190  54.9800449  68.7771925  65.7155379  54.3726119  68.0422335
  64.9779896  55.4709467  68.7781421  72.8734474  68.4187613  67.9905093
  72.8004645  69.2242585  68.5024397  72.4311867  68.6179579  67.1653114
  72.6624254  67.6559383  61.5007914  71.8791775  68.1981063  61.5946139
  73.3616999  68.1733363  61.9002156  75.9720904  53.4654013  64.1442120
  76.4689603  52.7123975  63.8243190  75.2007885  53.5018329  63.5785329
  83.8250661  59.1694378  65.7860411  83.8140537  60.0519094  65.4154344
  82.9568041  58.8165929  65.5914948  75.3333157  68.3174447  70.1463252
  76.0461130  68.9521912  70.0739153  74.8423186  68.4138313  69.3303253
  77.0550684  62.2225700  61.7180543  76.1206963  62.3427162  61.5485248
  77.2327353  61.3198167  61.4540553  72.5555872  55.6071396  63.8713804
  72.1853660  55.0542436  64.5594710  73.0514965  55.0029529  63.3188804
  80.4423236  58.0643019  62.2530577  80.9083688  58.8971011  62.1790880
  80.8930736  57.5988001  62.9575836  70.3845071  66.0668891  70.9668822
  71.0854530  66.7005374  71.1198217  69.9140186  66.4083622  70.2064462
  78.5099467  64.4086840  59.2516729  78.7859311  64.2943435  60.1610604
  77.6403966  64.0104325  59.2128903  78.4139898  50.4323606  66.2921479
  77.5002978  50.6627833  66.4603686  78.8433000  50.5162050  67.1435511
  78.1846357  58.6213498  68.7921373  77.5317807  58.8689406  68.1373826
  78.5626737  57.8077636  68.4583850  75.1453531  68.6573191  62.8949543
  75.3275925  67.8394847  63.3577295  75.9686517  68.8740884  62.4574433
  75.4795696  67.5841376  60.1564592  76.0083463  67.0733831  59.5434754
  75.7423916  67.2683907  61.0210125  74.2333930  59.3633309  75.2787410
  73.5574567  59.2627439  75.9489785  75.0561564  59.2072523  75.7423407
  65.9812789  65.6005246  67.8999925  66.5666226  64.8548934  68.0327829
  65.7837627  65.9109202  68.7836589  68.8351444  68.6356493  62.9162367
  68.1661820  69.1202621  62.4326408  68.6964314  68.8825714  63.8305746
  72.9756713  70.6700237  69.5145026  73.5275021  70.8331858  70.2794111
  73.3162906  71.2604674  68.8425051  67.9521206  53.0175386  70.1166911
  68.0162533  53.8790217  69.7044308  67.8888326  52.4049388  69.3839269
  67.4273479  55.0898519  73.7639945  68.0545517  54.7075596  74.3777469
  66.5701397  54.8712721  74.1295637  77.8267587  65.4961494  75.3693680
  78.3707491  66.1091452  74.8748635  77.2454432  66.0541073  75.8860693
  64.2039021  56.8974948  59.6958300  64.4992462  55.9885626  59.6425353
  63.3027057  56.8762688  59.3739302  76.1125100  68.6182212  66.5008708
  75.9876240  67.8171952  65.9919653  76.7704191  69.1128406  66.0122678
  67.7333268  54.9730945  65.6785848  67.0119854  55.5866912  65.5393322
  68.5226524  55.5088709  65.6002494  78.1760009  66.4191232  68.1288258
  77.2290344  66.2996583  68.0566585  78.5242782  65.5313730  68.2114520
  70.5359582  52.3085371  71.9526500  71.0593984  52.5547668  72.7152809
  70.3171915  53.1405406  71.5329637  65.9326863  54.5789046  59.8197625
  65.6039569  53.6986425  59.6372731  66.2866234  54.5236714  60.7074014
  75.1806442  66.2143948  64.3292610  75.0331404  65.2860656  64.5100180
  76.0059935  66.2364039  63.8449686  69.0468686  54.8662016  60.1873102
  69.3864759  55.3947937  59.4651711  69.4940807  55.2042422  60.9631669
  78.7840564  67.0372507  65.4157483  79.7087111  66.8315369  65.2781934
  78.6155867  66.7888908  66.3246825  71.7412127  53.2499066  69.6376171
  71.4008947  52.4506879  70.0396850  71.0351133  53.5500777  69.0653004
  72.3928599  50.3348379  68.0903494  73.2154668  49.8608857  67.9682384
  72.6366662  51.1138862  68.5902180  71.0336833  53.3636637  58.3866395
  71.7545196  53.7417890  57.8830112  70.4102137  54.0825514  58.4901373
  75.1767956  54.0681786  59.3224728  75.3931571  54.9506424  59.0213556
  74.6962023  53.6768000  58.5930370  69.9167178  57.0267499  65.8995472
  69.7711758  57.3407802  66.7919754  69.4392381  57.6452400  65.3466371
  71.7763560  54.0170047  65.9476362  71.7625129  53.1211141  65.6108660
  72.4935989  54.0240711  66.5814648  73.6289691  54.4507388  67.9929489
  73.3707469  55.3724458  67.9913820  73.0974731  54.0537822  68.6829953
  78.5735880  67.5558175  60.7719575  78.7472757  66.9904597  60.0193427
  79.0664771  68.3559070  60.5899064  71.1800456  52.8984428  61.2163932
  71.3016368  51.9701074  61.4154819  70.8902499  52.9123114  60.3042247
  74.0491647  50.5839338  64.3530652  74.0713344  50.6478671  63.3982631
  74.4659706  49.7443847  64.5471158  84.4275271  60.3194598  62.3909874
  84.8706417  59.5701923  61.9928998  83.5501781  60.3104734  62.0083606
  79.5611052  66.8724939  57.8716473  80.2561957  67.4931632  58.0903787
  79.9034202  66.0220290  58.1468851  81.4602475  64.3224645  59.4003804
  81.9853800  64.6611917  58.6753124  81.3724828  63.3871660  59.2166938
  73.1222524  68.2358718  71.5293680  73.4309651  67.9907865  72.4016380
  73.9198006  68.4405357  71.0412550  73.1443136  70.3896628  63.7599057
  72.7048127  69.8973007  64.4531913  73.8951253  69.8469596  63.5191132
  65.6235475  66.5808169  63.7623685  66.4493495  66.2811941  63.3822328
  65.2729527  65.8115791  64.2113473  70.5917008  65.9334637  65.8321358
  69.9697018  65.2705342  65.5323586  71.2621875  65.9595769  65.1495006
  63.8244080  64.4994495  64.7212618  62.9875989  64.0716670  64.5396620
  63.7967726  64.6926939  65.6583410  70.6641536  54.4116425  75.4253864
  70.7129691  55.2878548  75.0431634  71.2064050  53.8693818  74.8525508
  81.1496382  64.9557548  74.7055002  80.3591925  64.9381687  74.1659501
  80.9129736  65.4945842  75.4604038  81.2694257  61.8050015  72.0187730
  81.3192262  61.6400022  72.9603253  81.1608180  60.9377274  71.6285611
  70.1530515  64.4838560  59.3079819  70.3018636  65.1674025  58.6546492
  70.9596959  64.4643650  59.8229275  78.5598019  57.7880943  73.3347037
  79.4607882  57.6487407  73.0431035  78.6345993  57.9535397  74.2745214
  72.8940824  55.1647797  72.1800223  72.0244134  55.4581363  71.9082812
  73.1300305  55.7488242  72.9007487  82.7712453  64.2246956  72.2629752
  82.4797262  64.5876937  73.0993213  82.1584585  63.5113964  72.0843084
  83.9708136  61.7899836  64.7832322  84.8055027  62.2289640  64.9469882
  84.1067265  61.3138489  63.9640568  81.0199642  59.3479571  70.7309810
  81.4953763  59.5407217  69.9228661  80.0965207  59.4038757  70.4853193
  67.9083148  60.5103738  60.3140888  67.6629190  59.6066068  60.5121098
  68.0779063  60.5120888  59.3720366  75.5979858  51.3827414  69.6965643
  76.1161802  52.1188441  69.3712132  75.2434991  51.6891408  70.5312403
  67.1778796  56.2432096  57.8127049  66.4848041  56.3176450  57.1567085
  66.9330548  55.4792439  58.3348566  75.8492452  47.8027697  65.2166540
  76.1294206  47.1350886  65.8426967  76.6343059  47.9956792  64.7041204
  73.6525921  66.9786691  56.7791566  73.0799888  67.5976878  56.3262038
  74.2258714  67.5286052  57.3131488  79.7201311  56.2245331  68.9638115
  80.6718734  56.3243428  68.9850339  79.5504761  55.4323599  69.4736200
  77.7415690  53.3100914  69.1497516  77.1465622  53.5905927  68.4544005
  77.4565387  53.7994815  69.9214257  76.8723181  67.2623841  57.9100149
  77.8053854  67.1969403  58.1133024  76.7846393  68.0980108  57.4514681
  79.5011197  66.5789711  54.8704096  79.4224829  66.2449575  55.7639854
  80.3220864  67.0711479  54.8695569  82.1989388  59.4451451  68.0780415
  82.1665709  58.5067451  68.2640099  82.8090012  59.5235487  67.3446240
  74.0372719  58.3147503  54.1207619  74.9831824  58.1853712  54.1896037
  73.6586964  57.5762165  54.5977047  82.3483877  56.2362494  68.1238698
  81.8322926  55.4520951  67.9368627  83.2323825  55.9081211  68.2885218
  80.0094604  49.9803510  64.0834511  79.8119425  49.6718598  64.9677843
  80.6194309  50.7065148  64.2132441  88.0165938  60.5067457  67.2186452
  88.7469327  60.2452745  67.7794155  87.4072884  59.7696179  67.2588520
  86.0981235  58.6475320  67.8160903  85.3714399  58.5131285  67.2077394
  85.6828522  58.9552149  68.6217621  73.9211412  62.3665250  75.5808276
  74.8414421  62.5443849  75.7748322  73.8860995  61.4221295  75.4287975
  72.2215636  56.2397480  54.0562504  71.3147092  55.9430593  54.1325218
  72.4991617  55.9427298  53.1896790  66.9173484  60.2766284  68.2231057
  67.1359494  61.2083392  68.2419091  67.3299258  59.9174259  69.0085861
  73.8377702  50.7834370  60.2106745  73.0278431  50.4381455  60.5861991
  74.5262119  50.4741913  60.7994357  75.7668250  49.8612416  61.8331042
  76.3199289  50.2807870  62.4921065  76.0038337  48.9348165  61.8753998
  71.7901350  55.8499490  77.6133806  71.6898077  56.7993847  77.5445897
  71.5722892  55.5217729  76.7409876  70.9914421  53.0984415  54.1974483
  71.8533585  53.4239313  54.4570301  71.1764765  52.3115911  53.6847549
  63.0081837  61.1806755  66.4754672  62.3145308  60.7660708  65.9624627
  63.7554828  61.2227291  65.8788091  79.1447058  51.9712942  61.3409706
  78.5645727  52.6297746  60.9587759  78.8782990  51.1490286  60.9297124
  77.5950624  51.3717999  63.5431027  78.0950402  51.4834534  62.7345345
  78.2386232  51.0679052  64.1831835  71.6532620  59.2796629  76.4298868
  71.1699701  60.0796989  76.6362757  71.7393559  59.2904574  75.4766312
  64.9218579  61.1125009  64.3520687  64.8989267  61.2112696  63.4002570
  65.2319216  61.9590159  64.6737853  67.5805957  63.1701164  68.4667301
  68.5349211  63.1385106  68.3997233  67.3818481  62.7091787  69.2817527
  68.1705339  61.7402280  71.0338099  68.9898228  62.2346358  71.0572936
  68.4442147  60.8234248  71.0055667  77.9271936  54.1313032  60.3966055
  77.0397791  54.4162683  60.1786249  78.3425925  53.9706795  59.5493331
  81.2786472  54.1559553  64.1120394  82.0546862  54.6456005  64.3845011
  80.5534606  54.5817607  64.5692263  83.7159030  54.8687172  65.1694334
  84.3103521  54.6282908  64.4587643  83.7885614  54.1494303  65.7967871
  65.9356186  68.7120783  65.4837499  65.8010654  67.9521184  64.9175497
  65.5188248  69.4361683  65.0166288  77.0715149  63.8957707  54.4914075
  77.7750999  64.1007709  55.1071730  76.3477798  64.4634469  54.7563158
  77.9012959  59.6467568  60.6116345  77.8448161  60.1036119  59.7723977
  78.4541302  58.8858252  60.4339187  81.7117765  55.4357300  61.4366464
  81.4554699  55.0353935  62.2674672  81.0870633  56.1501094  61.3116603
  86.0230103  58.1753373  63.9437756  85.4629661  58.2446562  64.7169318
  85.4173606  57.9994358  63.2237252  69.0925312  69.6090100  65.6955942
  68.9757696  70.5535533  65.5934632  68.2717758  69.3063662  66.0841741
  78.9801846  64.3340236  56.5412535  79.8147450  63.9021434  56.3590009
  78.8186189  64.1622249  57.4689429  78.6347739  60.8372349  57.9068874
  78.5796542  60.6716621  56.9657318  78.0093794  61.5448382  58.0631064
  75.9493646  63.1421261  77.2322437  76.8184805  63.3161913  76.8709072
  75.4700397  63.9615678  77.1098166  71.9443864  50.3380458  57.4854192
  71.9322534  51.2822298  57.6422463  72.8367286  50.1550604  57.1913654
  70.1179826  70.2618362  68.9111870  71.0207073  70.2941972  69.2278365
  69.8917196  69.3318813  68.9258206  71.8733428  69.0149349  65.5721949
  70.9229059  69.0151210  65.4586321  72.1765914  68.2682083  65.0557984
  75.7595984  46.9323235  61.7400129  74.9928379  46.3781721  61.8856811
  76.1706689  47.0045104  62.6014281  67.7637745  53.2208031  75.8305310
  68.6269206  52.8644835  76.0408635  67.1903155  52.8821925  76.5180715
  87.6086122  74.8509887  66.6367711  88.2464531  74.7316634  65.9331051
  87.4906964  75.7990731  66.6955664  84.4175828  74.8037315  66.5729236
  84.0794339  74.6878380  65.6849771  85.2865596  74.4028480  66.5530242
  80.2762644  76.6572791  62.5626127  79.7127509  76.5662728  61.7942415
  80.1615039  75.8372696  63.0428620  84.8995611  75.9572167  72.5315442
  84.8884252  75.5624965  71.6595945  85.0616250  75.2238239  73.1249213
  77.8227075  78.1523983  65.4010347  78.6148367  77.8114808  64.9856647
  78.0623726  78.2618958  66.3212501  85.8562202  80.3243759  57.8740592
  85.2050182  80.9097840  57.4874606  86.6506565  80.8549954  57.9335629
  79.7817829  77.4132896  58.2727726  80.5548705  76.8661883  58.1340602
  80.1343228  78.2777146  58.4842188  81.6202872  78.7409279  71.4794626
  81.3292738  79.6454909  71.3641292  82.2559856  78.7825806  72.1938695
  82.5459079  76.1186127  68.0695985  83.1422651  75.8942149  67.3552948
  82.6034050  75.3770873  68.6721433  82.1184107  73.5725562  55.9046176
  82.3709628  73.0507084  55.1429639  81.1808666  73.4091708  56.0072860
  87.1627390  72.5761341  63.7120919  87.9490479  72.1580764  63.3611336
  87.4266094  73.4807433  63.8802568  87.3337467  78.0134191  58.4109576
  86.6983300  78.0868818  59.1230481  87.0034874  78.6027790  57.7328655
  92.5635817  72.5136574  64.6153898  93.2960989  71.9435791  64.8491727
  91.8075173  72.1258174  65.0560403  81.8380396  75.4753668  58.1070551
  81.7216654  74.7998572  58.7751635  81.9482656  74.9886042  57.2902704
  84.1811937  74.9363815  61.8117240  83.8170144  74.4094436  62.5230162
  85.0379053  74.5462285  61.6383726  90.0861237  66.2258148  69.0748506
  89.7544562  67.0953559  68.8509721  89.4906851  65.9094432  69.7542537
  83.8217424  69.9653715  56.8078589  83.9891826  70.8333952  57.1749060
  83.6314593  70.1280997  55.8839878  86.5792757  78.4270694  68.4744419
  86.2793480  79.3295733  68.3660226  86.2343817  78.1602877  69.3265572
  80.0305239  74.8784491  64.5081124  79.1055735  74.7460705  64.7158815
  80.2789652  75.6578710  65.0051066  89.9789901  70.9453234  66.1541857
  89.0706778  70.8768643  65.8600618  89.9277497  71.4225179  66.9823682
  83.8006645  72.4211373  57.7925256  83.6806270  72.8668423  58.6310736
  83.1059233  72.7696690  57.2338794  77.3914050  74.5217764  65.3424913
  77.5206431  74.7752243  66.2564324  76.7111501  75.1145472  65.0229568
  81.5613537  85.1915014  61.4415387  81.4837567  86.1422839  61.5203867
  80.9575180  84.8460887  62.0990313  84.0530767  72.3642880  74.0976754
  83.2764101  72.9236800  74.0879618  84.6921330  72.8499663  74.6191624
  91.8451547  69.1469673  67.9319730  91.2025927  69.4402206  67.2859525
  91.3406476  69.0322593  68.7372927  89.4991711  72.8932846  58.6205590
  90.4109567  73.1260233  58.4453287  88.9901358  73.4769890  58.0580668
  82.3077139  75.1728333  73.6594721  83.0491823  75.7113377  73.3829544
  81.6014124  75.7994622  73.8166273  87.7832479  77.3157474  72.2566882
  88.1915835  76.8739884  71.5121515  87.0609740  76.7410101  72.5101075
  84.1363549  72.2530080  69.6300439  84.9824744  72.6769494  69.7735088
  84.0762186  71.5963705  70.3239002  88.1061293  77.8758664  66.0119171
  87.4770156  78.0404378  65.3095239  87.7186955  78.2900274  66.7830135
  91.9850525  78.8113102  63.3663535  91.3001563  79.1912004  62.8160568
  92.0694374  79.4208429  64.0995483  87.2862994  69.9134449  71.2881613
  87.0423926  70.6676509  70.7515889  87.5622924  70.2919796  72.1228860
  89.2401457  76.4573061  69.9658878  89.4518352  77.1004821  69.2893260
  89.1931205  75.6235378  69.4980809  86.8427686  69.0690882  66.8695451
  85.9812165  69.3672135  67.1612188  86.8690120  69.2861281  65.9376483
  83.6589255  77.6133072  63.2769256  84.1227601  77.8920775  62.4873879
  83.3946053  76.7116517  63.0942347  80.5513336  77.1604554  66.2149020
  81.1214693  77.5891822  65.5766504  81.1421448  76.8787139  66.9133205
  82.5958141  73.7356225  60.0858821  83.2982184  74.1877268  60.5532748
  82.2638770  73.0940044  60.7138715  81.0438503  72.3267981  74.4610031
  80.4137163  73.0084262  74.6945428  80.9374591  72.2151063  73.5163169
  76.3383475  71.9939777  65.3875955  75.5482529  72.2497306  64.9116066
  76.8294722  72.8088115  65.4927996  90.3547285  79.3345017  68.1381236
  91.1764728  78.9325204  67.8563917  90.3509688  79.2313251  69.0897352
  78.2898220  72.3584357  62.3459432  77.4929384  72.4703051  62.8642927
  78.0623813  72.6971009  61.4800322  84.1203888  78.8829060  70.2941946
  84.1848321  79.3449467  71.1300118  83.4114812  78.2526425  70.4224256
  74.6221178  72.2470268  67.8190946  74.8729216  73.1317278  68.0848522
  75.1580726  72.0674869  67.0466038  98.4453278  75.6783765  64.4866207
  97.6916986  75.1091163  64.3310212  98.5800819  75.6446430  65.4336842
  83.8351906  80.5497167  60.1620927  83.6997581  81.3948703  60.5905774
  84.3761718  80.7516445  59.3986860  80.3219245  66.6288747  76.8235282
  79.9286191  66.0754946  77.4982926  81.1385386  66.9399326  77.2141799
  77.2881303  78.0672605  60.7348852  77.8005824  78.8615856  60.8854416
  77.9404016  77.3698896  60.6682453  79.0976188  81.1838362  62.8171605
  79.2742816  82.1056326  62.6292589  79.8933021  80.8696781  63.2465985
  83.2387206  68.0446626  74.4155538  83.9796920  68.6453779  74.3360001
  83.4705129  67.3024264  73.8573581  78.3828544  73.2302994  72.6933768
  78.2682060  72.3288251  72.9940867  77.5273062  73.4766690  72.3418585
  85.4620382  81.1720734  74.2921269  85.0184236  80.3857112  73.9742173
  86.1237596  81.3599884  73.6265160  80.2207503  82.7016535  68.8181947
  80.7714928  82.5733599  68.0458941  79.3818979  83.0011424  68.4676840
  87.5601620  81.4523534  72.3202670  87.5420096  82.2732415  71.8282939
  88.4821540  81.3277609  72.5452811  84.0174674  78.9667663  73.1626178
  84.5503011  78.2055951  72.9325486  83.4888755  78.6741315  73.9050333
  87.1844369  64.0727729  68.6919820  86.8408639  64.9629371  68.6158931
  87.5523332  63.8829387  67.8289405  75.2530220  76.3961260  61.5108422
  76.0905442  76.8058268  61.2942130  75.4308488  75.4560702  61.4808616
  87.1494652  74.0636340  57.1992255  86.6341275  74.8340945  57.4380643
  86.8771960  73.3901477  57.8225317  84.7341763  68.9086041  62.2577494
  83.8783359  68.5192892  62.0783132  85.1468715  68.9878002  61.3977279
  86.2640910  66.4432384  66.6569053  85.7605705  66.4062520  65.8436859
  86.5571517  67.3525127  66.7165710  82.5083796  66.5271114  65.6635235
  83.3736792  66.3313923  65.3041125  82.5761304  66.2981466  66.5904592
  92.1228926  76.8168695  59.1345429  91.3458369  76.4779855  58.6900591
  92.8020407  76.8221318  58.4600394  86.9380955  71.9363432  59.0252036
  86.6331091  72.2509582  59.8762180  87.8911397  72.0144852  59.0679369
  85.3827387  78.0953656  60.6744990  84.8548749  77.3606415  60.3618228
  84.8814890  78.8728332  60.4284959  90.3620233  76.2902676  65.7912037
  89.7043908  76.9801938  65.8792165  91.1660632  76.6799108  66.1346023
  80.1146115  68.7573322  63.0351602  80.6889867  68.5348504  62.3024795
  80.7017097  68.8262017  63.7880203  89.1725692  74.6447049  63.8415978
  89.6857574  75.2777041  64.3437688  89.8226916  74.0448244  63.4759338
  80.4415702  70.7877783  57.0547487  79.6053014  71.1252470  57.3756762
  80.3020471  70.6526763  56.1174624  82.4168782  65.6314571  61.7626671
  81.7633195  65.3163588  61.1383286  82.3749257  65.0090311  62.4886494
  83.5279987  75.9133866  53.6779963  82.6207049  75.6823119  53.8771112
  84.0251019  75.1171485  53.8653945  86.4348066  84.6231373  56.5976650
  85.7609765  84.9263070  57.2061607  86.8213888  85.4260454  56.2482107
  85.6506523  72.1196504  66.0874319  84.7329084  72.3411452  65.9296007
  86.0666666  72.1942815  65.2286026  86.4341570  73.5187920  61.2176999
  87.1813389  74.0309317  60.9084121  86.7033160  73.1971973  62.0781393
  84.7068221  76.0146461  58.2003954  83.7979440  75.7305494  58.2976423
  84.7363304  76.4345539  57.3407260  89.9387488  79.6253050  61.9695121
  89.4849815  78.7843960  62.0260312  89.3081455  80.2614449  62.3069901
  88.8820408  70.5545036  63.1995789  88.1443164  70.0422423  63.5306031
  89.1347181  70.1145418  62.3879065  88.3820427  81.4629547  62.9044939
  88.6743402  82.0234604  62.1857305  88.8919048  81.7558108  63.6598098
  88.9832035  63.3321288  63.7937558  89.2890912  62.4718652  63.5063473
  89.7084640  63.9238909  63.5936552  75.2756391  73.7351975  62.1819156
  75.0780791  73.1421336  61.4570222  74.7203055  73.4304185  62.8995095
  83.2553115  73.6275082  64.3013749  83.3101724  72.6748918  64.2256225
  82.4444317  73.7834521  64.7855047  84.4044308  77.5555205  55.5392032
  83.9663738  76.8391064  55.0797669  85.1454749  77.7831319  54.9777123
  81.1945475  72.2452141  62.0604128  80.3813340  72.5446312  62.4669320
  81.6904469  71.8507830  62.7778610  83.3454053  82.2409898  63.9938392
  83.3030231  82.4670744  63.0646924  84.2616751  82.0073273  64.1424194
  86.7919686  72.7093966  70.8919022  87.1469074  72.9365439  71.7513487
  87.4391818  73.0412343  70.2696277  92.5217423  75.8312402  61.5968351
  92.3835322  76.0213998  60.6689540  92.1653642  76.5931784  62.0536402
  80.6859549  69.8170497  67.6765363  81.3258929  69.6759256  66.9788326
  79.8537080  69.5305010  67.3003965  92.5486803  77.8988929  66.6079622
  92.9823310  77.8064218  67.4562676  93.2618384  77.8746429  65.9699638
  81.4619853  79.1172927  63.7900355  82.2560452  78.6223247  63.5882930
  80.7511546  78.5890790  63.4268061  86.2814698  81.4991023  68.1412723
  86.3351720  82.0681959  68.9090439  85.4129479  81.6692908  67.7766760
  77.7702617  73.2616009  59.8660108  76.8400205  73.2000464  60.0830070
  77.8660089  72.7391962  59.0696749  77.6888166  69.7870822  62.4538349
  77.9494983  70.7016155  62.3447510  78.5105338  69.3195264  62.6034962
  79.1613091  71.2008579  69.6237174  79.8336145  70.9925941  68.9749823
  78.3342878  71.0030665  69.1842406  93.4102352  77.9412629  69.1412508
  93.6038243  78.8458440  69.3871782  93.3102971  77.4820048  69.9751093
  85.0638663  67.8270520  71.6402835  84.4166578  68.5260470  71.5467311
  85.8339679  68.2606664  72.0079083  88.4717461  78.0919372  74.7153388
  88.3202968  77.8629924  73.7983472  88.4622141  79.0489973  74.7284733
  85.2402798  75.6651285  69.6999655  86.1694858  75.8162444  69.5268622
  84.8193828  75.7535306  68.8448301  84.0391129  79.6901949  67.4698192
  83.9002215  79.3220734  68.3424130  83.2505726  80.2049589  67.2982150
  84.6339281  84.7911046  58.8123729  84.8091037  84.3199089  59.6269351
  83.9472069  85.4176812  59.0404989  85.5896344  79.0683552  64.8587030
  85.2546177  79.0284322  65.7544680  85.0900290  78.4028268  64.3857440
  79.5640588  74.4751182  70.3839611  79.4260386  73.7431421  70.9851150
  80.4745512  74.3860082  70.1023799  88.5255536  76.4139586  55.1324090
  87.9084707  75.6886414  55.0357142  88.0572025  77.1748946  54.7891164
  82.1922889  74.1871141  69.8723291  82.9022508  73.5464333  69.8309909
  82.1492197  74.4384036  70.7949472  90.1809668  81.1238495  72.7929870
  90.1222214  80.4397715  72.1260453  90.5829186  81.8657485  72.3410496
  80.9051823  71.1736359  71.6918930  80.3689180  70.7227098  72.3440527
  80.3168532  71.3082268  70.9489395  79.2000367  87.9400408  65.5863589
  79.4396965  88.5718933  66.2642608  78.3569563  87.5888448  65.8728948
  80.3154082  70.6325011  54.2545394  79.4383548  70.5113811  53.8907641
  80.7911835  69.8411089  54.0024283  90.1827075  79.0878079  71.0243850
  89.2953854  78.7504000  71.1470249  90.7525626  78.3561110  71.2612615
  71.8356222  75.4202170  64.3486901  72.5227262  75.1063900  63.7607916
  71.6804351  76.3243535  64.0754153  76.6390944  70.3092367  68.7771925
  76.5549133  69.7018036  68.0422335  75.8173651  70.8001385  68.7781421
  83.7128228  83.7479531  67.9905093  83.6398400  84.5534502  68.5024397
  83.2705622  83.9471497  67.1653114  83.5018008  82.9851301  61.5007914
  82.7185530  83.5272981  61.5946139  84.2010753  83.5025281  61.9002156
  86.8114658  68.7945930  64.1442120  87.3083358  68.0415893  63.8243190
  86.0401640  68.8310247  63.5785329  94.6644416  74.4986296  65.7860411
  94.6534292  75.3811011  65.4154344  93.7961795  74.1457847  65.5914948
  86.1726912  83.6466365  70.1463252  86.8854884  84.2813830  70.0739153
  85.6816941  83.7430231  69.3303253  87.8944439  77.5517618  61.7180543
  86.9600718  77.6719080  61.5485248  88.0721107  76.6490084  61.4540553
  83.3949627  70.9363313  63.8713804  83.0247414  70.3834354  64.5594710
  83.8908719  70.3321447  63.3188804  91.2816990  73.3934937  62.2530577
  91.7477442  74.2262928  62.1790880  91.7324491  72.9279918  62.9575836
  81.2238825  81.3960808  70.9668822  81.9248285  82.0297291  71.1198217
  80.7533940  81.7375540  70.2064462  89.3493221  79.7378758  59.2516729
  89.6253065  79.6235353  60.1610604  88.4797720  79.3396243  59.2128903
  89.2533653  65.7615524  66.2921479  88.3396733  65.9919751  66.4603686
  89.6826754  65.8453968  67.1435511  89.0240111  73.9505416  68.7921373
  88.3711562  74.1981323  68.1373826  89.4020491  73.1369554  68.4583850
  85.9847285  83.9865109  62.8949543  86.1669680  83.1686765  63.3577295
  86.8080271  84.2032801  62.4574433  86.3189451  82.9133294  60.1564592
  86.8477217  82.4025749  59.5434754  86.5817670  82.5975824  61.0210125
  85.0727684  74.6925227  75.2787410  84.3968321  74.5919356  75.9489785
  85.8955318  74.5364441  75.7423407  76.8206544  80.9297163  67.8999925
  77.4059980  80.1840851  68.0327829  76.6231382  81.2401120  68.7836589
  79.6745199  83.9648411  62.9162367  79.0055574  84.4494538  62.4326408
  79.5358068  84.2117631  63.8305746  71.4124198  73.5002764  66.6204368
  71.4508298  72.9666354  67.4141486  70.9064491  72.9737969  66.0015345
  83.8150467  85.9992154  69.5145026  84.3668775  86.1623776  70.2794111
  84.1556661  86.5896592  68.8425051  78.7914961  68.3467304  70.1166911
  78.8556287  69.2082135  69.7044308  78.7282081  67.7341306  69.3839269
  78.2667233  70.4190437  73.7639945  78.8939272  70.0367514  74.3777469
  77.4095152  70.2004639  74.1295637  88.6661342  80.8253412  75.3693680
  89.2101246  81.4383370  74.8748635  88.0848187  81.3832990  75.8860693
  75.0432776  72.2266866  59.6958300  75.3386217  71.3177544  59.6425353
  74.1420812  72.2054605  59.3739302  86.9518855  83.9474130  66.5008708
  86.8269994  83.1463870  65.9919653  87.6097946  84.4420323  66.0122678
  78.5727023  70.3022862  65.6785848  77.8513609  70.9158830  65.5393322
  79.3620279  70.8380627  65.6002494  89.0153763  81.7483150  68.1288258
  88.0684099  81.6288501  68.0566585  89.3636536  80.8605648  68.2114520
  81.3753336  67.6377289  71.9526500  81.8987738  67.8839585  72.7152809
  81.1565670  68.4697324  71.5329637  76.7720617  69.9080963  59.8197625
  76.4433324  69.0278342  59.6372731  77.1259988  69.8528632  60.7074014
  86.0200196  81.5435866  64.3292610  85.8725159  80.6152574  64.5100180
  86.8453690  81.5655957  63.8449686  79.8862441  70.1953933  60.1873102
  80.2258513  70.7239854  59.4651711  80.3334561  70.5334339  60.9631669
  89.6234318  82.3664425  65.4157483  90.5480866  82.1607286  65.2781934
  89.4549622  82.1180826  66.3246825  82.5805881  68.5790984  69.6376171
  82.2402702  67.7798797  70.0396850  81.8744888  68.8792695  69.0653004
  83.2322353  65.6640296  68.0903494  84.0548423  65.1900775  67.9682384
  83.4760417  66.4430780  68.5902180  81.8730588  68.6928555  58.3866395
  82.5938950  69.0709808  57.8830112  81.2495892  69.4117432  58.4901373
  86.0161711  69.3973704  59.3224728  86.2325325  70.2798342  59.0213556
  85.5355778  69.0059917  58.5930370  80.7560932  72.3559417  65.8995472
  80.6105513  72.6699720  66.7919754  80.2786136  72.9744317  65.3466371
  82.6157315  69.3461965  65.9476362  82.6018884  68.4503058  65.6108660
  83.3329743  69.3532629  66.5814648  84.4683446  69.7799305  67.9929489
  84.2101223  70.7016376  67.9913820  83.9368486  69.3829740  68.6829953
  89.4129634  82.8850092  60.7719575  89.5866512  82.3196515  60.0193427
  89.9058526  83.6850987  60.5899064  75.2306594  74.8964761  68.8383133
  74.6860062  75.6724569  68.9703408  76.1085944  75.2435566  68.6802255
  82.0194211  68.2276345  61.2163932  82.1410122  67.2992991  61.4154819
  81.7296253  68.2415031  60.3042247  84.8885401  65.9131256  64.3530652
  84.9107098  65.9770589  63.3982631  85.3053460  65.0735764  64.5471158
  95.2669026  75.6486515  62.3909874  95.7100172  74.8993840  61.9928998
  94.3895536  75.6396652  62.0083606  90.4004807  82.2016857  57.8716473
  91.0955711  82.8223549  58.0903787  90.7427957  81.3512208  58.1468851
  76.0172616  74.0234658  71.7313290  75.2754352  74.1717293  72.3177921
  75.6965360  74.2842923  70.8680040  92.2996230  79.6516562  59.4003804
  92.8247554  79.9903835  58.6753124  92.2118583  78.7163578  59.2166938
  83.9616279  83.5650636  71.5293680  84.2703405  83.3199783  72.4016380
  84.7591761  83.7697274  71.0412550  83.9836891  85.7188546  63.7599057
  83.5441881  85.2264924  64.4531913  84.7345008  85.1761513  63.5191132
  76.4629230  81.9100086  63.7623685  77.2887250  81.6103858  63.3822328
  76.1123282  81.1407709  64.2113473  81.4310763  81.2626555  65.8321358
  80.8090772  80.5997260  65.5323586  82.1015630  81.2887687  65.1495006
  74.6637835  79.8286413  64.7212618  73.8269743  79.4008587  64.5396620
  74.6361480  80.0218856  65.6583410  81.5035290  69.7408343  75.4253864
  81.5523446  70.6170465  75.0431634  82.0457805  69.1985736  74.8525508
  91.9890136  80.2849466  74.7055002  91.1985680  80.2673605  74.1659501
  91.7523491  80.8237760  75.4604038  92.1088011  77.1341932  72.0187730
  92.1586016  76.9691940  72.9603253  92.0001934  76.2669191  71.6285611
  80.9924270  79.8130478  59.3079819  81.1412390  80.4965942  58.6546492
  81.7990713  79.7935568  59.8229275  89.3991773  73.1172860  73.3347037
  90.3001636  72.9779325  73.0431035  89.4739748  73.2827315  74.2745214
  83.7334579  70.4939715  72.1800223  82.8637888  70.7873281  71.9082812
  83.9694059  71.0780160  72.9007487  93.6106208  79.5538874  72.2629752
  93.3191016  79.9168854  73.0993213  92.9978339  78.8405882  72.0843084
  94.8101890  77.1191754  64.7832322  95.6448782  77.5581558  64.9469882
  94.9461019  76.6430407  63.9640568  91.8593396  74.6771488  70.7309810
  92.3347518  74.8699135  69.9228661  90.9358962  74.7330674  70.4853193
  78.7476903  75.8395656  60.3140888  78.5022945  74.9357986  60.5121098
  78.9172817  75.8412806  59.3720366  86.4373613  66.7119332  69.6965643
  86.9555557  67.4480359  69.3712132  86.0828745  67.0183325  70.5312403
  78.0172550  71.5724013  57.8127049  77.3241795  71.6468368  57.1567085
  77.7724302  70.8084357  58.3348566  86.6886207  63.1319615  65.2166540
  86.9687961  62.4642804  65.8426967  87.4736814  63.3248710  64.7041204
  84.4919675  82.3078608  56.7791566  83.9193642  82.9268796  56.3262038
  85.0652469  82.8577970  57.3131488  90.5595065  71.5537248  68.9638115
  91.5112488  71.6535346  68.9850339  90.3898516  70.7615517  69.4736200
  88.5809445  68.6392832  69.1497516  87.9859377  68.9197844  68.4544005
  88.2959141  69.1286733  69.9214257  87.7116935  82.5915759  57.9100149
  88.6447608  82.5261320  58.1133024  87.6240148  83.4272025  57.4514681
  90.3404952  81.9081629  54.8704096  90.2618583  81.5741492  55.7639854
  91.1614619  82.4003397  54.8695569  93.0383143  74.7743368  68.0780415
  93.0059463  73.8359369  68.2640099  93.6483767  74.8527405  67.3446240
  84.8766474  73.6439421  54.1207619  85.8225579  73.5145629  54.1896037
  84.4980719  72.9054083  54.5977047  93.1877631  71.5654412  68.1238698
  92.6716680  70.7812868  67.9368627  94.0717580  71.2373128  68.2885218
  90.8488358  65.3095427  64.0834511  90.6513179  65.0010515  64.9677843
  91.4588064  66.0357066  64.2132441  98.8559693  75.8359375  67.2186452
  99.5863081  75.5744663  67.7794155  98.2466638  75.0988097  67.2588520
  96.9374990  73.9767238  67.8160903  96.2108153  73.8423203  67.2077394
  96.5222277  74.2844066  68.6217621  84.7605166  77.6957167  75.5808276
  85.6808176  77.8735766  75.7748322  84.7254749  76.7513213  75.4287975
  83.0609391  71.5689398  54.0562504  82.1540846  71.2722510  54.1325218
  83.3385372  71.2719216  53.1896790  73.9787331  72.8895761  64.5061551
  73.6590116  72.0361069  64.2135925  73.4320760  73.1044339  65.2619518
  77.7567239  75.6058202  68.2231057  77.9753249  76.5375310  68.2419091
  78.1693013  75.2466176  69.0085861  84.6771457  66.1126287  60.2106745
  83.8672185  65.7673372  60.5861991  85.3655874  65.8033831  60.7994357
  86.6062005  65.1904334  61.8331042  87.1593044  65.6099787  62.4921065
  86.8432091  64.2640082  61.8753998  82.6295104  71.1791408  77.6133806
  82.5291831  72.1285765  77.5445897  82.4116646  70.8509647  76.7409876
  81.8308176  68.4276333  54.1974483  82.6927340  68.7531231  54.4570301
  82.0158520  67.6407829  53.6847549  73.8475591  76.5098672  66.4754672
  73.1539063  76.0952625  65.9624627  74.5948582  76.5519209  65.8788091
  89.9840812  67.3004859  61.3409706  89.4039481  67.9589663  60.9587759
  89.7176745  66.4782204  60.9297124  88.4344378  66.7009917  63.5431027
  88.9344157  66.8126451  62.7345345  89.0779986  66.3970970  64.1831835
  82.4926374  74.6088547  76.4298868  82.0093456  75.4088907  76.6362757
  82.5787313  74.6196491  75.4766312  75.7612334  76.4416926  64.3520687
  75.7383022  76.5404614  63.4002570  76.0712970  77.2882077  64.6737853
  78.4199712  78.4993081  68.4667301  79.3742965  78.4677024  68.3997233
  78.2212235  78.0383705  69.2817527  79.0099094  77.0694197  71.0338099
  79.8291983  77.5638276  71.0572936  79.2835902  76.1526165  71.0055667
  88.7665690  69.4604950  60.3966055  87.8791545  69.7454600  60.1786249
  89.1819679  69.2998713  59.5493331  92.1180226  69.4851471  64.1120394
  92.8940616  69.9747923  64.3845011  91.3928360  69.9109525  64.5692263
  94.5552785  70.1979090  65.1694334  95.1497276  69.9574826  64.4587643
  94.6279369  69.4786220  65.7967871  76.7749941  84.0412701  65.4837499
  76.6404408  83.2813102  64.9175497  76.3582003  84.7653601  65.0166288
  87.9108904  79.2249624  54.4914075  88.6144754  79.4299627  55.1071730
  87.1871552  79.7926386  54.7563158  88.7406714  74.9759486  60.6116345
  88.6841915  75.4328037  59.7723977  89.2935056  74.2150170  60.4339187
  92.5511520  70.7649217  61.4366464  92.2948454  70.3645853  62.2674672
  91.9264388  71.4793011  61.3116603  96.8623858  73.5045291  63.9437756
  96.3023416  73.5738480  64.7169318  96.2567361  73.3286275  63.2237252
  79.9319066  84.9382018  65.6955942  79.8151451  85.8827450  65.5934632
  79.1111513  84.6355579  66.0841741  89.8195601  79.6632153  56.5412535
  90.6541205  79.2313352  56.3590009  89.6579944  79.4914167  57.4689429
  89.4741493  76.1664267  57.9068874  89.4190297  76.0008538  56.9657318
  88.8487548  76.8740300  58.0631064  74.2634008  71.4032331  71.7330296
  74.9092872  70.8931285  72.2217521  74.0551159  72.1401013  72.3073721
  86.7887400  78.4713179  77.2322437  87.6578560  78.6453831  76.8709072
  86.3094152  79.2907595  77.1098166  82.7837619  65.6672376  57.4854192
  82.7716288  66.6114216  57.6422463  83.6761040  65.4842521  57.1913654
  80.9573581  85.5910280  68.9111870  81.8600827  85.6233890  69.2278365
  80.7310951  84.6610731  68.9258206  82.7127183  84.3441266  65.5721949
  81.7622814  84.3443128  65.4586321  83.0159669  83.5974001  65.0557984
  86.5989738  62.2615152  61.7400129  85.8322134  61.7073639  61.8856811
  87.0100443  62.3337021  62.6014281  78.6031499  68.5499948  75.8305310
  79.4662961  68.1936753  76.0408635  78.0296910  68.2113843  76.5180715
  98.4479876  90.1801805  66.6367711  99.0858286  90.0608552  65.9331051
  98.3300719  91.1282649  66.6955664  95.2569582  90.1329233  66.5729236
  94.9188094  90.0170297  65.6849771  96.1259351  89.7320398  66.5530242
  91.1156398  91.9864709  62.5626127  90.5521263  91.8954646  61.7942415
  91.0008793  91.1664614  63.0428620  95.7389365  91.2864084  72.5315442
  95.7278006  90.8916883  71.6595945  95.9010005  90.5530157  73.1249213
  88.6620830  93.4815901  65.4010347  89.4542122  93.1406725  64.9856647
  88.9017480  93.5910876  66.3212501  90.6211584  92.7424814  58.2727726
  91.3942460  92.1953801  58.1340602  90.9736983  93.6069063  58.4842188
  92.4596626  94.0701196  71.4794626  92.1686492  94.9746827  71.3641292
  93.0953611  94.1117724  72.1938695  93.3852833  91.4478045  68.0695985
  93.9816406  91.2234067  67.3552948  93.4427805  90.7062790  68.6721433
  92.9577862  88.9017480  55.9046176  93.2103382  88.3799001  55.1429639
  92.0202421  88.7383626  56.0072860  98.0021145  87.9053258  63.7120919
  98.7884234  87.4872682  63.3611336  98.2659849  88.8099351  63.8802568
  92.6774150  90.8045586  58.1070551  92.5610409  90.1290489  58.7751635
  92.7876410  90.3177960  57.2902704  95.0205691  90.2655733  61.8117240
  94.6563899  89.7386354  62.5230162  95.8772807  89.8754202  61.6383726
 100.9254992  81.5550066  69.0748506 100.5938317  82.4245477  68.8509721
 100.3300605  81.2386350  69.7542537  94.6611178  85.2945633  56.8078589
  94.8285581  86.1625869  57.1749060  94.4708347  85.4572915  55.8839878
  90.8698993  90.2076409  64.5081124  89.9449489  90.0752623  64.7158815
  91.1183406  90.9870628  65.0051066 100.8183655  86.2745152  66.1541857
  99.9100533  86.2060560  65.8600618 100.7671251  86.7517097  66.9823682
  94.6400399  87.7503290  57.7925256  94.5200024  88.1960341  58.6310736
  93.9452988  88.0988608  57.2338794  88.2307804  89.8509682  65.3424913
  88.3600185  90.1044161  66.2564324  87.5505255  90.4437390  65.0229568
  94.8924521  87.6934798  74.0976754  94.1157855  88.2528718  74.0879618
  95.5315084  88.1791580  74.6191624 102.6845302  84.4761590  67.9319730
 102.0419682  84.7694123  67.2859525 102.1800230  84.3614511  68.7372927
 100.3385465  88.2224764  58.6205590 101.2503321  88.4552150  58.4453287
  99.8295112  88.8061808  58.0580668  93.1470893  90.5020251  73.6594721
  93.8885578  91.0405295  73.3829544  92.4407879  91.1286540  73.8166273
  94.9757303  87.5821998  69.6300439  95.8218498  88.0061412  69.7735088
  94.9155941  86.9255622  70.3239002  98.1256748  85.2426366  71.2881613
  97.8817680  85.9968427  70.7515889  98.4016679  85.6211714  72.1228860
  97.6821440  84.3982799  66.8695451  96.8205919  84.6964053  67.1612188
  97.7083875  84.6153198  65.9376483  94.4983010  92.9424990  63.2769256
  94.9621355  93.2212693  62.4873879  94.2339808  92.0408435  63.0942347
  91.3907091  92.4896472  66.2149020  91.9608448  92.9183740  65.5766504
  91.9815202  92.2079056  66.9133205  93.4351896  89.0648142  60.0858821
  94.1375939  89.5169186  60.5532748  93.1032524  88.4231961  60.7138715
  91.8832257  87.6559899  74.4610031  91.2530918  88.3376180  74.6945428
  91.7768345  87.5442981  73.5163169  87.1777230  87.3231695  65.3875955
  86.3876284  87.5789224  64.9116066  87.6688477  88.1380033  65.4927996
  89.1291975  87.6876274  62.3459432  88.3323138  87.7994969  62.8642927
  88.9017567  88.0262927  61.4800322  85.4614933  87.5762186  67.8190946
  85.7122971  88.4609195  68.0848522  85.9974481  87.3966787  67.0466038
  91.1613000  81.9580665  76.8235282  90.7679945  81.4046863  77.4982926
  91.9779140  82.2691243  77.2141799  88.1275058  93.3964523  60.7348852
  88.6399578  94.1907773  60.8854416  88.7797770  92.6990814  60.6682453
  89.9369942  96.5130279  62.8171605  90.1136571  97.4348244  62.6292589
  90.7326776  96.1988699  63.2465985  94.0780961  83.3738544  74.4155538
  94.8190674  83.9745697  74.3360001  94.3098884  82.6316182  73.8573581
  89.2222299  88.5594911  72.6933768  89.1075814  87.6580168  72.9940867
  88.3666817  88.8058608  72.3418585  98.0238124  79.4019647  68.6919820
  97.6802393  80.2921289  68.6158931  98.3917086  79.2121305  67.8289405
  86.0923974  91.7253177  61.5108422  86.9299196  92.1350186  61.2942130
  86.2702242  90.7852620  61.4808616  97.9888407  89.3928258  57.1992255
  97.4735030  90.1632863  57.4380643  97.7165715  88.7193394  57.8225317
  95.5735518  84.2377959  62.2577494  94.7177114  83.8484809  62.0783132
  95.9862469  84.3169920  61.3977279  97.1034664  81.7724302  66.6569053
  96.5999460  81.7354437  65.8436859  97.3965271  82.6817045  66.7165710
  93.3477550  81.8563032  65.6635235  94.2130547  81.6605840  65.3041125
  93.4155059  81.6273384  66.5904592  97.7774710  87.2655350  59.0252036
  97.4724845  87.5801499  59.8762180  98.7305152  87.3436770  59.0679369
  90.9539869  84.0865240  63.0351602  91.5283621  83.8640421  62.3024795
  91.5410852  84.1553934  63.7880203 100.0119446  89.9738967  63.8415978
 100.5251328  90.6068958  64.3437688 100.6620670  89.3740162  63.4759338
  91.2809456  86.1169701  57.0547487  90.4446769  86.4544387  57.3756762
  91.1414226  85.9818681  56.1174624  93.2562537  80.9606489  61.7626671
  92.6026949  80.6455506  61.1383286  93.2143011  80.3382229  62.4886494
  94.3673742  91.2425784  53.6779963  93.4600803  91.0115037  53.8771112
  94.8644774  90.4463403  53.8653945  96.4900277  87.4488422  66.0874319
  95.5722839  87.6703369  65.9296007  96.9060421  87.5234733  65.2286026
  97.2735325  88.8479838  61.2176999  98.0207144  89.3601235  60.9084121
  97.5426915  88.5263891  62.0781393  95.5461975  91.3438379  58.2003954
  94.6373194  91.0597411  58.2976423  95.5757059  91.7637457  57.3407260
  99.7214162  85.8836954  63.1995789  98.9836919  85.3714340  63.5306031
  99.9740936  85.4437336  62.3879065  99.8225789  78.6613206  63.7937558
 100.1284666  77.8010570  63.5063473 100.5478394  79.2530826  63.5936552
  86.1150146  89.0643893  62.1819156  85.9174545  88.4713253  61.4570222
  85.5596810  88.7596103  62.8995095  94.0946869  88.9566999  64.3013749
  94.1495479  88.0040836  64.2256225  93.2838071  89.1126438  64.7855047
  95.2438063  92.8847122  55.5392032  94.8057493  92.1682981  55.0797669
  95.9848504  93.1123237  54.9777123  92.0339229  87.5744059  62.0604128
  91.2207095  87.8738229  62.4669320  92.5298223  87.1799748  62.7778610
  97.6313441  88.0385883  70.8919022  97.9862829  88.2657357  71.7513487
  98.2785572  88.3704260  70.2696277  91.5253304  85.1462414  67.6765363
  92.1652683  85.0051174  66.9788326  90.6930834  84.8596928  67.3003965
  92.3013608  94.4464845  63.7900355  93.0954206  93.9515165  63.5882930
  91.5905300  93.9182708  63.4268061  88.6096371  88.5907927  59.8660108
  87.6793959  88.5292382  60.0830070  88.7053843  88.0683879  59.0696749
  88.5281920  85.1162739  62.4538349  88.7888738  86.0308073  62.3447510
  89.3499093  84.6487182  62.6034962  90.0006846  86.5300497  69.6237174
  90.6729899  86.3217859  68.9749823  89.1736632  86.3322583  69.1842406
  95.9032418  83.1562438  71.6402835  95.2560333  83.8552387  71.5467311
  96.6733433  83.5898581  72.0079083  96.0796552  90.9943202  69.6999655
  97.0088612  91.1454362  69.5268622  95.6587582  91.0827223  68.8448301
  90.4034343  89.8043100  70.3839611  90.2654141  89.0723338  70.9851150
  91.3139266  89.7152000  70.1023799  93.0316644  89.5163059  69.8723291
  93.7416262  88.8756251  69.8309909  92.9885952  89.7675954  70.7949472
  91.7445578  86.5028277  71.6918930  91.2082935  86.0519015  72.3440527
  91.1562286  86.6374186  70.9489395  91.1547836  85.9616928  54.2545394
  90.2777303  85.8405729  53.8907641  91.6305590  85.1703006  54.0024283
  82.6749977  90.7494088  64.3486901  83.3621016  90.4355818  63.7607916
  82.5198105  91.6535453  64.0754153  87.4784699  85.6384284  68.7771925
  87.3942888  85.0309954  68.0422335  86.6567405  86.1293303  68.7781421
  97.6508413  84.1237848  64.1442120  98.1477112  83.3707810  63.8243190
  96.8795394  84.1602165  63.5785329  94.2343381  86.2655231  63.8713804
  93.8641169  85.7126271  64.5594710  94.7302474  85.6613364  63.3188804
 100.0927407  81.0907442  66.2921479  99.1790487  81.3211668  66.4603686
 100.5220509  81.1745886  67.1435511  99.8633866  89.2797333  68.7921373
  99.2105316  89.5273241  68.1373826 100.2414246  88.4661472  68.4583850
  87.6600298  96.2589081  67.8999925  88.2453735  95.5132769  68.0327829
  87.4625136  96.5693038  68.7836589  82.2517953  88.8294681  66.6204368
  82.2902052  88.2958272  67.4141486  81.7458246  88.3029887  66.0015345
  89.6308715  83.6759222  70.1166911  89.6950042  84.5374053  69.7044308
  89.5675835  83.0633223  69.3839269  89.1060988  85.7482354  73.7639945
  89.7333026  85.3659432  74.3777469  88.2488906  85.5296556  74.1295637
  85.8826530  87.5558783  59.6958300  86.1779971  86.6469462  59.6425353
  84.9814566  87.5346523  59.3739302  89.4120777  85.6314780  65.6785848
  88.6907363  86.2450748  65.5393322  90.2014033  86.1672545  65.6002494
  92.2147091  82.9669207  71.9526500  92.7381493  83.2131503  72.7152809
  91.9959424  83.7989241  71.5329637  87.6114372  85.2372881  59.8197625
  87.2827078  84.3570260  59.6372731  87.9653743  85.1820550  60.7074014
  90.7256195  85.5245851  60.1873102  91.0652268  86.0531772  59.4651711
  91.1728316  85.8626257  60.9631669  93.4199636  83.9082902  69.6376171
  93.0796456  83.1090715  70.0396850  92.7138642  84.2084612  69.0653004
  94.0716108  80.9932214  68.0903494  94.8942177  80.5192692  67.9682384
  94.3154171  81.7722698  68.5902180  92.7124342  84.0220472  58.3866395
  93.4332705  84.4001725  57.8830112  92.0889646  84.7409349  58.4901373
  96.8555465  84.7265621  59.3224728  97.0719079  85.6090259  59.0213556
  96.3749532  84.3351835  58.5930370  91.5954686  87.6851335  65.8995472
  91.4499267  87.9991638  66.7919754  91.1179890  88.3036235  65.3466371
  93.4551069  84.6753883  65.9476362  93.4412638  83.7794976  65.6108660
  94.1723497  84.6824546  66.5814648  95.3077200  85.1091223  67.9929489
  95.0494978  86.0308294  67.9913820  94.7762240  84.7121657  68.6829953
  86.0700349  90.2256679  68.8383133  85.5253817  91.0016487  68.9703408
  86.9479699  90.5727484  68.6802255  92.8587965  83.5568263  61.2163932
  92.9803876  82.6284909  61.4154819  92.5690008  83.5706949  60.3042247
  95.7279156  81.2423173  64.3530652  95.7500853  81.3062506  63.3982631
  96.1447215  80.4027682  64.5471158  86.8566371  89.3526575  71.7313290
  86.1148107  89.5009211  72.3177921  86.5359115  89.6134841  70.8680040
  87.3022984  97.2392004  63.7623685  88.1281004  96.9395776  63.3822328
  86.9517036  96.4699627  64.2113473  85.5031589  95.1578331  64.7212618
  84.6663498  94.7300505  64.5396620  85.4755235  95.3510774  65.6583410
  92.3429045  85.0700260  75.4253864  92.3917200  85.9462383  75.0431634
  92.8851559  84.5277653  74.8525508  91.8318024  95.1422396  59.3079819
  91.9806145  95.8257860  58.6546492  92.6384468  95.1227486  59.8229275
 100.2385528  88.4464778  73.3347037 101.1395391  88.3071243  73.0431035
 100.3133502  88.6119233  74.2745214  94.5728333  85.8231633  72.1800223
  93.7031643  86.1165199  71.9082812  94.8087814  86.4072078  72.9007487
  89.5870657  91.1687573  60.3140888  89.3416699  90.2649903  60.5121098
  89.7566572  91.1704724  59.3720366  97.2767367  82.0411250  69.6965643
  97.7949311  82.7772277  69.3712132  96.9222500  82.3475243  70.5312403
  88.8566305  86.9015931  57.8127049  88.1635550  86.9760286  57.1567085
  88.6118057  86.1376274  58.3348566  97.5279961  78.4611532  65.2166540
  97.8081715  77.7934721  65.8426967  98.3130568  78.6540628  64.7041204
 101.3988820  86.8829166  68.9638115 102.3506243  86.9827264  68.9850339
 101.2292270  86.0907435  69.4736200  99.4203199  83.9684749  69.1497516
  98.8253131  84.2489762  68.4544005  99.1352896  84.4578650  69.9214257
  95.7160228  88.9731339  54.1207619  96.6619333  88.8437547  54.1896037
  95.3374473  88.2346001  54.5977047 101.6882113  80.6387345  64.0834511
 101.4906934  80.3302433  64.9677843 102.2981818  81.3648984  64.2132441
  93.9003145  86.8981315  54.0562504  92.9934601  86.6014428  54.1325218
  94.1779126  86.6011133  53.1896790  84.8181086  88.2187679  64.5061551
  84.4983870  87.3652987  64.2135925  84.2714514  88.4336257  65.2619518
  88.5960993  90.9350120  68.2231057  88.8147003  91.8667227  68.2419091
  89.0086767  90.5758094  69.0085861  95.5165211  81.4418205  60.2106745
  94.7065939  81.0965290  60.5861991  96.2049628  81.1325749  60.7994357
  97.4455759  80.5196252  61.8331042  97.9986798  80.9391705  62.4921065
  97.6825846  79.5932000  61.8753998  93.4688859  86.5083325  77.6133806
  93.3685586  87.4577682  77.5445897  93.2510401  86.1801564  76.7409876
  92.6701930  83.7568250  54.1974483  93.5321094  84.0823149  54.4570301
  92.8552274  82.9699746  53.6847549  84.6869346  91.8390590  66.4754672
  83.9932817  91.4244543  65.9624627  85.4342337  91.8811127  65.8788091
 100.8234567  82.6296777  61.3409706 100.2433236  83.2881581  60.9587759
 100.5570499  81.8074122  60.9297124  99.2738133  82.0301835  63.5431027
  99.7737911  82.1418369  62.7345345  99.9173741  81.7262887  64.1831835
  86.6006088  91.7708844  64.3520687  86.5776776  91.8696531  63.4002570
  86.9106725  92.6173995  64.6737853  89.2593466  93.8284999  68.4667301
  90.2136720  93.7968941  68.3997233  89.0605990  93.3675623  69.2817527
  89.8492848  92.3986115  71.0338099  90.6685737  92.8930194  71.0572936
  90.1229656  91.4818083  71.0055667  99.6059445  84.7896867  60.3966055
  98.7185300  85.0746518  60.1786249 100.0213434  84.6290631  59.5493331
 102.9573981  84.8143388  64.1120394 103.7334371  85.3039841  64.3845011
 102.2322115  85.2401442  64.5692263  87.6143695  99.3704618  65.4837499
  87.4798163  98.6105019  64.9175497  87.1975757 100.0945518  65.0166288
  99.5800468  90.3051403  60.6116345  99.5235670  90.7619955  59.7723977
 100.1328811  89.5442088  60.4339187 103.3905274  86.0941135  61.4366464
 103.1342208  85.6937771  62.2674672 102.7658142  86.8084929  61.3116603
  85.1027763  86.7324249  71.7330296  85.7486626  86.2223203  72.2217521
  84.8944914  87.4692930  72.3073721  93.6231373  80.9964293  57.4854192
  93.6110043  81.9406133  57.6422463  94.5154795  80.8134439  57.1913654
  97.4383493  77.5907070  61.7400129  96.6715888  77.0365557  61.8856811
  97.8494197  77.6628939  62.6014281  89.4425254  83.8791866  75.8305310
  90.3056715  83.5228671  76.0408635  88.8690664  83.5405761  76.5180715
  34.4652059  -6.1581565  52.1255654  35.2573351  -6.4990740  51.7101953
  34.7048709  -6.0486590  53.0457807  42.4987186  -3.9861789  44.5985899
  41.8475165  -3.4007709  44.2119912  43.2931548  -3.4555594  44.6580936
  36.4242813  -6.8972652  44.9973033  37.1973689  -7.4443665  44.8585909
  36.7768212  -6.0328403  45.2087494  38.2627855  -5.5696270  58.2039932
  37.9717721  -4.6650639  58.0886599  38.8984840  -5.5279742  58.9184002
  38.2038520   0.8809466  48.1660694  38.1262550   1.8317291  48.2449174
  37.6000164   0.5355339  48.8235620  37.1938319  -7.1500994  52.9394326
  37.7639677  -6.7213726  52.3011811  37.7846431  -7.4318409  53.6378512
  40.7628871  -5.4276488  57.0187253  40.8273304  -4.9656081  57.8545425
  40.0539795  -6.0579123  57.1469563  40.4776889  -3.7608381  46.8866233
  40.3422564  -2.9156845  47.3151081  41.0186702  -3.5589103  46.1232167
  33.9306286  -6.2432943  47.4594158  34.4430807  -5.4489692  47.6099723
  34.5828999  -6.9406652  47.3927760  35.7401171  -3.1267186  49.5416912
  35.9167799  -2.2049222  49.3537895  36.5358005  -3.4408767  49.9711291
  42.1045365  -3.1384814  61.0166575  41.6609220  -3.9248436  60.6987480
  42.7662579  -2.9505664  60.3510466  36.8632487  -1.6089013  55.5427254
  37.4139912  -1.7371949  54.7704248  36.0243963  -1.3094124  55.1922147
  44.2026603  -2.8582014  59.0447977  44.1845079  -2.0373133  58.5528246
  45.1246524  -2.9827939  59.2698118  40.6599658  -5.3437885  59.8871485
  41.1927994  -6.1049597  59.6570793  40.1313739  -5.6364233  60.6295640
  43.0773049   0.3125825  43.3221956  42.4034748   0.6157522  43.9306914
  43.4638871   1.1154905  42.9727413  45.0245411  -2.8476001  49.6290246
  45.3168385  -2.2870944  48.9102611  45.5344031  -2.5547440  50.3843405
  39.9879036  -2.0695650  50.7183699  39.9455215  -1.8434804  49.7892231
  40.9041735  -2.3032275  50.8669500  38.1044837  -5.1932621  50.5145662
  38.8985435  -5.6882301  50.3128237  37.3936529  -5.7214758  50.1513367
  42.9239681  -2.8114525  54.8658029  42.9776703  -2.2423589  55.6335745
  42.0554462  -2.6412640  54.5012067  40.6816113  -4.6203599  54.1943499
  40.5427198  -4.9884815  55.0669437  39.8930709  -4.1055960  54.0227457
  41.2764265   0.4805498  45.5369035  41.4516020   0.0093541  46.3514658
  40.5897053   1.1071264  45.7650296  42.2321328  -5.2421996  51.5832337
  41.8971160  -5.2821226  52.4789987  41.7325273  -5.9077280  51.1102747
  46.8234651  -3.1867054  59.5175177  46.7647197  -3.8707833  58.8505760
  47.2254169  -2.4448064  59.0655803  35.8425350   3.6294860  52.3108896
  36.0821948   4.2613384  52.9887914  34.9994546   3.2782900  52.5974255
  40.3553212  -0.5626017  54.7150400  40.2823383   0.2428954  55.2269704
  39.9130605  -0.3634051  53.8898421  40.1442991  -1.3254247  48.2253221
  39.3610513  -0.7832567  48.3191446  40.8435737  -0.8080268  48.6247462
  42.8151895  -0.6639183  56.8708558  43.5279867  -0.0291718  56.7984460
  42.3241924  -0.5675317  56.0548560  37.8663809  -2.9144740  57.6914129
  38.5673268  -2.2808257  57.8443523  37.3958924  -2.5730008  56.9309768
  45.9918205  -4.5726790  45.9762036  46.2678049  -4.6870195  46.8855910
  45.1222703  -4.9709305  45.9374209  42.6272269  -0.3240439  49.6194850
  42.8094663  -1.1418783  50.0822602  43.4505255  -0.1072747  49.1819740
  42.9614434  -1.3972254  46.8809898  43.4902201  -1.9079799  46.2680060
  43.2242654  -1.7129724  47.7455431  33.4631527  -3.3808385  54.6245232
  34.0484964  -4.1264697  54.7573136  33.2656365  -3.0704428  55.5081896
  36.3170182  -0.3457137  49.6407674  35.6480557   0.1388990  49.1571714
  36.1783052  -0.0987917  50.5551053  40.4575451   1.6886606  56.2390332
  41.0093759   1.8518228  57.0039418  40.7981644   2.2791044  55.5670357
  45.3086325  -3.4852136  62.0938987  45.8526229  -2.8722178  61.5993942
  44.7273170  -2.9272558  62.6106000  43.5943838  -0.3631418  53.2254015
  43.4694977  -1.1641678  52.7164960  44.2522929   0.1314775  52.7367985
  45.6578746  -2.5622398  54.8533565  44.7109082  -2.6817047  54.7811891
  46.0061519  -3.4499900  54.9359826  42.6625180  -2.7669682  51.0537917
  42.5150142  -3.6952975  51.2345487  43.4878673  -2.7449591  50.5694992
  46.2659301  -1.9441123  52.1402790  47.1905849  -2.1498262  52.0027241
  46.0974605  -2.1924722  53.0492131  46.0554618  -1.4255456  47.4964881
  46.2291495  -1.9909033  46.7438734  46.5483509  -0.6254561  47.3144371
  47.0429790  -2.1088691  44.5961779  47.7380695  -1.4881999  44.8149094
  47.3852940  -2.9593340  44.8714157  40.6041262  -0.7454912  58.2538987
  40.9128388  -0.9905765  59.1261686  41.4016744  -0.5408274  57.7657857
  40.6261874   1.4082997  50.4844363  40.1866864   0.9159376  51.1777220
  41.3769991   0.8655965  50.2436439  33.1054213  -2.4005462  50.4868991
  33.9312233  -2.7001690  50.1067635  32.7548265  -3.1697839  50.9358780
  38.0735746  -3.0478993  52.5566665  37.4515755  -3.7108288  52.2568893
  38.7440613  -3.0217862  51.8740313  31.3062818  -4.4819135  51.4457925
  30.4694726  -4.9096961  51.2641926  31.2786463  -4.2886692  52.3828716
  37.6349253  -4.4975070  46.0325126  37.7837373  -3.8139606  45.3791798
  38.4415697  -4.5169980  46.5474581  41.1344659  -2.0026940  43.5036873
  40.5618626  -1.3836753  43.0507345  41.7077452  -1.4527578  44.0376795
  44.3541918  -1.7189790  44.6345455  45.2872592  -1.7844228  44.8378331
  44.2665131  -0.8833523  44.1759988  46.9829935  -2.4023919  41.5949403
  46.9043567  -2.7364056  42.4885161  47.8039602  -1.9102151  41.5940875
  35.0624695  -5.8112467  55.1912608  36.0167949  -5.8428525  55.1242540
  34.8637219  -6.2721843  56.0062834  35.6524077  -7.2411351  57.7583406
  36.4716966  -6.7467272  57.7818243  35.9260885  -8.1579383  57.7300973
  33.4174924  -0.2692847  52.2082806  33.2829392  -1.0292446  51.6420804
  33.0006986   0.4548052  51.7411595  44.5533887  -5.0855924  41.2159381
  45.2569737  -4.8805921  41.8317037  43.8296536  -4.5179162  41.4808465
  36.5744050   0.6276470  52.4201249  36.4576434   1.5721902  52.3179939
  35.7536496   0.3250031  52.8087048  37.5998564   1.2804732  55.6357177
  38.5025811   1.3128342  55.9523672  37.3735934   0.3505183  55.6503513
  39.3552166   0.0335718  52.2967256  38.4047797   0.0337580  52.1831628
  39.6584652  -0.7131547  51.7803290  55.0904859   5.8696256  53.3613018
  55.7283269   5.7503004  52.6576358  54.9725702   6.8177100  53.4200970
  51.8994566   5.8223685  53.2974543  51.5613077   5.7064749  52.4095078
  52.7684334   5.4214850  53.2775549  47.7581381   7.6759161  49.2871434
  47.1946246   7.5849098  48.5187721  47.6433776   6.8559065  49.7673926
  52.3814349   6.9758536  59.2560748  52.3702989   6.5811335  58.3841252
  52.5434988   6.2424609  59.8494520  45.3045813   9.1710353  52.1255654
  46.0967105   8.8301177  51.7101953  45.5442463   9.2805328  53.0457807
  53.3380940  11.3430129  44.5985899  52.6868920  11.9284209  44.2119912
  54.1325303  11.8736324  44.6580936  47.2636567   8.4319266  44.9973033
  48.0367443   7.8848253  44.8585909  47.6161966   9.2963515  45.2087494
  49.1021610   9.7595648  58.2039932  48.8111476  10.6641279  58.0886599
  49.7378594   9.8012176  58.9184002  50.0277817   7.1372497  54.7941292
  50.6241389   6.9128519  54.0798255  50.0852788   6.3957242  55.3966740
  49.6002845   4.5911932  42.6291483  49.8528366   4.0693453  41.8674946
  48.6627404   4.4278077  42.7318166  54.6446128   3.5947710  50.4366226
  55.4309217   3.1767134  50.0856643  54.9084832   4.4993803  50.6047874
  54.8156205   9.0320561  45.1354883  54.1802038   9.1055187  45.8475787
  54.4853612   9.6214159  44.4573962  60.0454555   3.5322944  51.3399205
  60.7779727   2.9622160  51.5737034  59.2893911   3.1444544  51.7805710
  49.3199134   6.4940038  44.8315858  49.2035392   5.8184941  45.4996942
  49.4301394   6.0072412  44.0148011  51.6630675   5.9550185  48.5362547
  51.2988882   5.4280806  49.2475468  52.5197791   5.5648654  48.3629032
  51.3036162   0.9840085  43.5323896  51.4710564   1.8520321  43.8994367
  51.1133331   1.1467366  42.6085185  54.0611495   9.4457064  55.1989726
  53.7612218  10.3482102  55.0905533  53.7162554   9.1789247  56.0510879
  47.5123976   5.8970860  51.2326430  46.5874473   5.7647075  51.4404122
  47.7608390   6.6765080  51.7296373  57.4608639   1.9639604  52.8787163
  56.5525516   1.8955012  52.5845924  57.4096234   2.4411549  53.7068989
  51.2825383   3.4397742  44.5170562  51.1625008   3.8854793  45.3556043
  50.5877971   3.7883060  43.9584100  44.8732787   5.5404134  52.0670219
  45.0025169   5.7938613  52.9809631  44.1930239   6.1331842  51.7474874
  49.0432275  16.2101384  48.1660694  48.9656304  17.1609209  48.2449174
  48.4393918  15.8647256  48.8235620  51.5349504   3.3829249  60.8222060
  50.7582838   3.9423170  60.8124925  52.1740067   3.8686032  61.3436931
  59.3270285   0.1656042  54.6565037  58.6844665   0.4588575  54.0104832
  58.8225214   0.0508963  55.4618234  56.9810449   3.9119215  45.3450896
  57.8928305   4.1446602  45.1698594  56.4720096   4.4956260  44.7825975
  49.7895877   6.1914703  60.3840027  50.5310561   6.7299747  60.1074851
  49.0832862   6.8180992  60.5411579  55.2651216   8.3343843  58.9812189
  55.6734572   7.8926254  58.2366821  54.5428478   7.7596471  59.2346382
  51.6182286   3.2716450  56.3545746  52.4643482   3.6955864  56.4980395
  51.5580924   2.6150074  57.0484309  55.5880031   8.8945034  52.7364478
  54.9588893   9.0590748  52.0340546  55.2005693   9.3086643  53.5075442
  59.4669263   9.8299472  50.0908842  58.7820301  10.2098373  49.5405875
  59.5513112  10.4394798  50.8240789  54.7681732   0.9320818  58.0126920
  54.5242664   1.6862879  57.4761195  55.0441662   1.3106166  58.8474167
  56.7220194   7.4759431  56.6904185  56.9337090   8.1191191  56.0138566
  56.6749943   6.6421747  56.2226115  54.3246423   0.0877251  53.5940757
  53.4630902   0.3858505  53.8857495  54.3508858   0.3047650  52.6621790
  51.1407993   8.6319442  50.0014563  51.6046338   8.9107145  49.2119185
  50.8764791   7.7302887  49.8187654  48.0332074   8.1790923  52.9394326
  48.6033431   8.6078192  52.3011811  48.6240186   7.8973508  53.6378512
  50.0776879   4.7542594  46.8104128  50.7800922   5.2063638  47.2778054
  49.7457507   4.1126413  47.4384021  48.5257240   3.3454351  61.1855337
  47.8955901   4.0270632  61.4190734  48.4193328   3.2337433  60.2408476
  43.8202213   3.0126147  52.1121262  43.0301267   3.2683676  51.6361372
  44.3113460   3.8274485  52.2173302  57.8366022  10.3531386  54.8626542
  58.6583466   9.9511573  54.5809224  57.8328425  10.2499620  55.8142658
  45.7716958   3.3770726  49.0704738  44.9748122   3.4889420  49.5888234
  45.5442550   3.7157378  48.2045629  51.6022626   9.9015429  57.0187253
  51.6667058  10.3635837  57.8545425  50.8933550   9.2712794  57.1469563
  42.1039916   3.2656637  54.5436252  42.3547954   4.1503647  54.8093828
  42.6399464   3.0861239  53.7711344  65.9272015   6.6970135  51.2111514
  65.1735724   6.1277533  51.0555518  66.0619557   6.6632799  52.1582149
  51.3170644  11.5683537  46.8866233  51.1816318  12.4135073  47.3151081
  51.8580456  11.7702815  46.1232167  47.8037983  -2.3524883  63.5480589
  47.4104929  -2.9058685  64.2228233  48.6204124  -2.0414305  63.9387106
  44.7700041   9.0858975  47.4594158  45.2824561   9.8802225  47.6099723
  45.4222754   8.3885265  47.3927760  46.5794926  12.2024731  49.5416912
  46.7561554  13.1242696  49.3537895  47.3751759  11.8883150  49.9711291
  50.7205944  -0.9367004  61.1400845  51.4615658  -0.3359851  61.0605308
  50.9523867  -1.6789366  60.5818888  45.8647282   4.2489363  59.4179075
  45.7500797   3.3474620  59.7186174  45.0091800   4.4953060  59.0663891
  52.9439120  12.1907103  61.0166575  52.5002974  11.4043482  60.6987480
  53.6056334  12.3786254  60.3510466  47.7026241  13.7202905  55.5427254
  48.2533666  13.5919968  54.7704248  46.8637717  14.0197794  55.1922147
  55.0420358  12.4709903  59.0447977  55.0238833  13.2918784  58.5528246
  55.9640278  12.3463979  59.2698118  51.4993412   9.9854033  59.8871485
  52.0321749   9.2242321  59.6570793  50.9707493   9.6927685  60.6295640
  42.7348958   7.4147629  48.2353729  43.5724180   7.8244638  48.0187437
  42.9127225   6.4747071  48.2053923  54.6313390   5.0822710  43.9237562
  54.1160013   5.8527315  44.1625949  54.3590698   4.4087846  44.5470623
  52.2160501  -0.0727589  48.9822800  51.3602097  -0.4620739  48.8028439
  52.6287453   0.0064372  48.1222586  49.9902533  -2.4542516  52.3880542
  50.8555530  -2.6499708  52.0286431  50.0580042  -2.6832165  53.3149899
  59.6047664   7.8355065  45.8590735  58.8277107   7.4966224  45.4145897
  60.2839145   7.8407688  45.1845700  54.4199693   2.9549802  45.7497343
  54.1149829   3.2695951  46.6007486  55.3730135   3.0331222  45.7924676
  52.8646125   9.1140025  47.3990297  52.3367486   8.3792785  47.0863534
  52.3633628   9.8914702  47.1530265  57.8438971   7.3089046  52.5157343
  57.1862645   7.9988307  52.6037472  58.6479370   7.6985478  52.8591330
  47.5964852  -0.2240308  49.7596909  48.1708604  -0.4465127  49.0270102
  48.1835835  -0.1551614  50.5125510  56.6544430   5.6633419  50.5661285
  57.1676311   6.2963410  51.0682995  57.3045654   5.0634614  50.2004645
  47.9234440   1.8064153  43.7792794  47.0871752   2.1438839  44.1002069
  47.7839209   1.6713132  42.8419931  51.0098725   6.9320236  40.4025270
  50.1025787   6.7009489  40.6016419  51.5069757   6.1357855  40.5899252
  53.9166804  15.6417743  43.3221956  53.2428503  15.9449440  43.9306914
  54.3032626  16.4446823  42.9727413  53.1325261   3.1382874  52.8119626
  52.2147822   3.3597821  52.6541314  53.5485404   3.2129185  51.9531333
  53.9160308   4.5374290  47.9422306  54.6632127   5.0495687  47.6329428
  54.1851898   4.2158342  48.8026699  52.1886958   7.0332830  44.9249260
  51.2798178   6.7491863  45.0221730  52.2182042   7.4531909  44.0652567
  57.4206226  10.6439420  48.6940428  56.9668553   9.8030330  48.7505618
  56.7900193  11.2800818  49.0315208  56.3639145   1.5731406  49.9241095
  55.6261902   1.0608792  50.2551338  56.6165919   1.1331788  49.1124372
  55.8639165  12.4815917  49.6290246  56.1562139  13.0420974  48.9102611
  56.3737786  12.7744478  50.3843405  42.7575129   4.7538345  48.9064462
  42.5599529   4.1607705  48.1815529  42.2021793   4.4490555  49.6240401
  50.7371853   4.6461451  51.0259056  50.7920462   3.6935287  50.9501532
  49.9263055   4.8020890  51.5100354  51.8863046   8.5741574  42.2637339
  51.4482476   7.8577433  41.8042976  52.6273487   8.8017689  41.7022430
  48.6764212   3.2638511  48.7849434  47.8632078   3.5632681  49.1914627
  49.1723207   2.8694200  49.5023917  50.8272790  13.2596268  50.7183699
  50.7848969  13.4857114  49.7892231  51.7435489  13.0259642  50.8669500
  54.2738424   3.7280335  57.6164328  54.6287812   3.9551808  58.4758794
  54.9210555   4.0598712  56.9941584  60.0036161   6.8498771  48.3213657
  59.8654060   7.0400367  47.3934847  59.6472380   7.6118154  48.7781708
  48.1678287   0.8356866  54.4010669  48.8077667   0.6945625  53.7033633
  47.3355818   0.5491380  54.0249271  60.0305541   8.9175298  53.3324929
  60.4642047   8.8250587  54.1807983  60.7437121   8.8932799  52.6944945
  48.9438591  10.1359297  50.5145662  49.7379190   9.6409617  50.3128237
  48.2330283   9.6077160  50.1513367  53.7633436  12.5177392  54.8658029
  53.8170458  13.0868329  55.6335745  52.8948217  12.6879277  54.5012067
  45.2521355   4.2802378  46.5905414  44.3218943   4.2186834  46.8075377
  45.3478827   3.7578331  45.7942056  45.1706904   0.8057191  49.1783656
  45.4313721   1.7202525  49.0692817  45.9924076   0.3381634  49.3280269
  46.6431829   2.2194949  56.3482481  47.3154882   2.0112311  55.6995130
  45.8161615   2.0217034  55.9087713  60.8921090   8.9598999  55.8657814
  61.0856980   9.8644809  56.1117089  60.7921708   8.5006418  56.6996399
  52.5457401  -1.1543111  58.3648142  51.8985316  -0.4553161  58.2712618
  53.3158416  -0.7206967  58.7324390  55.9536199   9.1105742  61.4398695
  55.8021705   8.8816293  60.5228779  55.9440878  10.0676343  61.4530040
  52.7221535   6.6837654  56.4244961  53.6513595   6.8348814  56.2513929
  52.3012565   6.7721675  55.5693608  51.5209867  10.7088319  54.1943499
  51.3820953  10.3407103  55.0669437  50.7324463  11.2235958  54.0227457
  52.1158019  15.8097415  45.5369035  52.2909775  15.3385458  46.3514658
  51.4290807  16.4363181  45.7650296  53.0715082  10.0869921  51.5832337
  52.7364915  10.0470691  52.4789987  52.5719028   9.4214637  51.1102747
  47.0459326   5.4937551  57.1084918  46.9079124   4.7617790  57.7096457
  47.9564250   5.4046452  56.8269106  56.0074274   7.4325956  41.8569396
  55.3903445   6.7072784  41.7602449  55.5390762   8.1935316  41.5136471
  49.6741627   5.2057511  56.5968597  50.3841245   4.5650703  56.5555216
  49.6310935   5.4570406  57.5194778  57.6628406  12.1424864  59.5175177
  57.6040952  11.4584084  58.8505760  58.0647924  12.8843854  59.0655803
  48.3870561   2.1922729  58.4164237  47.8507918   1.7413467  59.0685833
  47.7987269   2.3268638  57.6734701  46.6819104  18.9586778  52.3108896
  46.9215703  19.5905302  52.9887914  45.8388301  18.6074818  52.5974255
  47.7972820   1.6511380  40.9790701  46.9202286   1.5300181  40.6152947
  48.2730573   0.8597458  40.7269589  57.6645813  10.1064448  57.7489156
  56.7772592   9.7690370  57.8715555  58.2344364   9.3747479  57.9857922
  39.3174960   6.4388540  51.0732208  40.0046000   6.1250270  50.4853223
  39.1623089   7.3429904  50.7999459  44.1209682   1.3278736  55.5017231
  44.0367871   0.7204406  54.7667641  43.2992388   1.8187755  55.5026728
  51.1946966  14.7665900  54.7150400  51.1217138  15.5720872  55.2269704
  50.7524359  14.9657866  53.8898421  50.9836746  14.0037670  48.2253221
  50.2004268  14.5459351  48.3191446  51.6829491  14.5211650  48.6247462
  54.2933396  -0.1867700  50.8687427  54.7902095  -0.9397738  50.5488497
  53.5220377  -0.1503383  50.3030636  62.1463153   5.5172665  52.5105718
  62.1353030   6.3997381  52.1399651  61.2780533   5.1644216  52.3160255
  53.6545650  14.6652734  56.8708558  54.3673622  15.3000199  56.7984460
  53.1635678  14.7616600  56.0548560  55.3763177   8.5703987  48.4425850
  54.4419455   8.6905450  48.2730554  55.5539845   7.6676454  48.1785860
  50.8768365   1.9549683  50.5959111  50.5066152   1.4020723  51.2840017
  51.3727457   1.3507816  50.0434111  58.7635728   4.4121306  48.9775884
  59.2296180   5.2449298  48.9036187  59.2143228   3.9466288  49.6821143
  48.7057563  12.4147178  57.6914129  49.4067023  13.0483661  57.8443523
  48.2352678  12.7561909  56.9309768  56.8311959  10.7565128  45.9762036
  57.1071803  10.6421722  46.8855910  55.9616458  10.3582613  45.9374209
  56.5058849   4.9691785  55.5166679  55.8530299   5.2167693  54.8619132
  56.8839229   4.1555924  55.1829157  53.4666023  15.0051479  49.6194850
  53.6488418  14.1873134  50.0822602  54.2899009  15.2219171  49.1819740
  53.8008189  13.9319664  46.8809898  54.3295955  13.4212118  46.2680060
  54.0636408  13.6162194  47.7455431  52.5546422   5.7111596  62.0032716
  51.8787059   5.6105726  62.6735092  53.3774056   5.5550810  62.4668714
  44.3025281  11.9483533  54.6245232  44.8878718  11.2027221  54.7573136
  44.1050120  12.2587490  55.5081896  47.1563937  14.9834780  49.6407674
  46.4874312  15.4680908  49.1571714  47.0176806  15.2304001  50.5551053
  38.8942936   4.5189133  53.3449675  38.9327036   3.9852724  54.1386793
  38.3883229   3.9924339  52.7260652  51.2969205  17.0178524  56.2390332
  51.8487513  17.1810145  57.0039418  51.6375399  17.6082962  55.5670357
  46.2733698  -0.6346326  56.8412217  46.3375025   0.2268505  56.4289615
  46.2100819  -1.2472325  56.1084576  45.7485971   1.4376806  60.4885251
  46.3758010   1.0553884  61.1022776  44.8913890   1.2191008  60.8540944
  56.1480079  11.8439781  62.0938987  56.6919983  12.4569740  61.5993942
  55.5666924  12.4019360  62.6106000  42.5251514   3.2453235  46.4203606
  42.8204955   2.3363914  46.3670660  41.6239549   3.2240975  46.0984609
  54.4337592  14.9660499  53.2254015  54.3088732  14.1650239  52.7164960
  55.0916684  15.4606693  52.7367985  46.0545761   1.3209232  52.4031155
  45.3332346   1.9345200  52.2638628  46.8439016   1.8566997  52.3247801
  56.4972501  12.7669519  54.8533565  55.5502836  12.6474871  54.7811891
  56.8455274  11.8792018  54.9359826  48.8572074  -1.3436342  58.6771807
  49.3806476  -1.0974045  59.4398116  48.6384407  -0.5116307  58.2574944
  44.2539355   0.9267333  46.5442931  43.9252061   0.0464712  46.3618037
  44.6078726   0.8715002  47.4319321  53.5018934  12.5622236  51.0537917
  53.3543897  11.6338943  51.2345487  54.3272428  12.5842326  50.5694992
  47.3681178   1.2140303  46.9118409  47.7077251   1.7426224  46.1897017
  47.8153299   1.5520709  47.6876976  57.1053056  13.3850794  52.1402790
  58.0299603  13.1793656  52.0027241  56.9368359  13.1367196  53.0492131
  50.0624619  -0.4022646  56.3621477  49.7221440  -1.2014833  56.7642157
  49.3563625  -0.1020936  55.7898310  49.3549326  -0.2885076  45.1111702
  50.0757688   0.0896177  44.6075419  48.7314630   0.4303801  45.2146680
  53.4980448   0.4160073  46.0470034  53.7144063   1.2984711  45.7458862
  53.0174516   0.0246287  45.3175676  48.2379670   3.3745787  52.6240779
  48.0924251   3.6886090  53.5165060  47.7604873   3.9930687  52.0711677
  50.0976053   0.3648335  52.6721668  50.0837621  -0.5310572  52.3353966
  50.8148481   0.3718998  53.3059954  51.9502183   0.7985675  54.7174796
  51.6919961   1.7202745  54.7159126  51.4187224   0.4016109  55.4075260
  56.8948372  13.9036462  47.4964881  57.0685250  13.3382884  46.7438734
  57.3877263  14.7037357  47.3144371  42.7125332   5.9151131  55.5628440
  42.1678800   6.6910939  55.6948714  43.5904682   6.2621935  55.4047561
  49.5012949  -0.7537285  47.9409238  49.6228860  -1.6820639  48.1400126
  49.2114991  -0.7398599  47.0287554  62.7487763   6.6672885  49.1155181
  63.1918909   5.9180210  48.7174304  61.8714274   6.6583021  48.7328913
  57.8823545  13.2203226  44.5961779  58.5774449  13.8409919  44.8149094
  58.2246695  12.3698578  44.8714157  43.4991354   5.0421027  58.4558597
  42.7573090   5.1903663  59.0423227  43.1784098   5.3029293  57.5925346
  59.7814968  10.6702932  46.1249110  60.3066292  11.0090205  45.3998430
  59.6937320   9.7349947  45.9412245  51.4435016  14.5837005  58.2538987
  51.7522143  14.3386152  59.1261686  52.2410498  14.7883644  57.7657857
  51.4655628  16.7374915  50.4844363  51.0260619  16.2451294  51.1777220
  52.2163745  16.1947883  50.2436439  43.9447967  12.9286456  50.4868991
  44.7705987  12.6290228  50.1067635  43.5942019  12.1594078  50.9358780
  48.9129501  12.2812924  52.5566665  48.2909510  11.6183629  52.2568893
  49.5834368  12.3074056  51.8740313  42.1456573  10.8472782  51.4457925
  41.3088481  10.4194957  51.2641926  42.1180218  11.0405226  52.3828716
  48.9854028   0.7594712  62.1499171  49.0342184   1.6356835  61.7676941
  49.5276542   0.2172105  61.5770814  59.4708874  11.3035835  61.4300308
  58.6804418  11.2859974  60.8904808  59.2342228  11.8424129  62.1849345
  59.5906749   8.1528302  58.7433037  59.6404754   7.9878309  59.6848559
  59.4820672   7.2855561  58.3530917  48.4743008  10.8316848  46.0325126
  48.6231128  11.5152312  45.3791798  49.2809451  10.8121938  46.5474581
  56.8810511   4.1359230  60.0592343  57.7820374   3.9965695  59.7676341
  56.9558486   4.3013685  60.9990521  51.2153317   1.5126085  58.9045530
  50.3456626   1.8059651  58.6328118  51.4512797   2.0966530  59.6252793
  61.0924946  10.5725243  58.9875058  60.8009754  10.9355224  59.8238519
  60.4797077   9.8592252  58.8088390  62.2920628   8.1378123  51.5077628
  63.1267519   8.5767927  51.6715189  62.4279757   7.6616776  50.6885874
  59.3412134   5.6957858  57.4555116  59.8166256   5.8885504  56.6473968
  58.4177699   5.7517044  57.2098500  46.2295641   6.8582025  47.0386195
  45.9841682   5.9544355  47.2366405  46.3991555   6.8599176  46.0965673
  45.4991288   2.5910383  44.5372356  44.8060533   2.6654738  43.8812392
  45.2543040   1.8270726  45.0593873  51.9738413  13.3264978  43.5036873
  51.4012380  13.9455165  43.0507345  52.5471207  13.8764340  44.0376795
  58.0413803   2.5723618  55.6883422  58.9931226   2.6721716  55.7095646
  57.8717253   1.7801887  56.1981506  56.0628182  -0.3420799  55.8742823
  55.4678115  -0.0615786  55.1789311  55.7777879   0.1473102  56.6459564
  55.1935673  13.6102128  44.6345455  56.1266346  13.5447690  44.8378331
  55.1058886  14.4458395  44.1759988  57.8223690  12.9267998  41.5949403
  57.7437321  12.5927862  42.4885161  58.6433356  13.4189766  41.5940875
  60.5201881   5.7929738  54.8025721  60.4878201   4.8545738  54.9885405
  61.1302504   5.8713774  54.0691546  52.3585212   4.6625791  40.8452926
  53.3044316   4.5331999  40.9141344  51.9799457   3.9240453  41.3222354
  60.6696369   2.5840781  54.8484005  60.1535418   1.7999238  54.6613934
  61.5536318   2.2559498  55.0130524  66.3378431   6.8545745  53.9431758
  67.0681819   6.5931033  54.5039462  65.7285376   6.1174467  53.9833826
  64.4193728   4.9953607  54.5406209  63.6926891   4.8609572  53.9322701
  64.0041015   5.3030436  55.3462928  52.2423904   8.7143537  62.3053582
  53.1626914   8.8922136  62.4993629  52.2073487   7.7699582  62.1533282
  50.5428129   2.5875767  40.7807811  49.6359584   2.2908880  40.8570524
  50.8204110   2.2905585  39.9142097  41.4606069   3.9082131  51.2306857
  41.1408853   3.0547439  50.9381231  40.9139497   4.1230709  51.9864824
  45.2385977   6.6244572  54.9476364  45.4571986   7.5561679  54.9664397
  45.6511750   6.2652546  55.7331167  50.1113842   2.1977777  64.3379113
  50.0110569   3.1472134  64.2691204  49.8935384   1.8696016  63.4655183
  49.3126913  -0.5537298  40.9219790  50.1746077  -0.2282399  41.1815607
  49.4977258  -1.3405802  40.4092856  41.3294329   7.5285042  53.1999979
  40.6357801   7.1138995  52.6869933  42.0767320   7.5705579  52.6033398
  49.9745112   5.6274916  63.1544174  49.4912194   6.4275276  63.3608063
  50.0606051   5.6382861  62.2011618  43.2431072   7.4603296  51.0765994
  43.2201760   7.5590983  50.1247877  43.5531708   8.3068447  51.3983160
  45.9018450   9.5179451  55.1912608  46.8561703   9.4863393  55.1242540
  45.7030973   9.0570075  56.0062834  46.4917832   8.0880567  57.7583406
  47.3110721   8.5824646  57.7818243  46.7654639   7.1712535  57.7300973
  56.2484428   0.4791319  47.1211361  55.3610283   0.7640970  46.9031556
  56.6638417   0.3185083  46.2738638  59.5998964   0.5037840  50.8365700
  60.3759354   0.9934293  51.1090317  58.8747098   0.9295894  51.2937570
  44.2568678  15.0599070  52.2082806  44.1223146  14.2999471  51.6420804
  43.8400741  15.7839970  51.7411595  55.3927641  10.2435994  41.2159381
  56.0963491  10.4485996  41.8317037  54.6690290  10.8112756  41.4808465
  56.2225452   5.9945855  47.3361651  56.1660653   6.4514407  46.4969284
  56.7753794   5.2336540  47.1584494  60.0330258   1.7835587  48.1611771
  59.7767192   1.3832223  48.9919979  59.4083126   2.4979381  48.0361910
  64.3442595   4.5231660  50.6683062  63.7842153   4.5924850  51.4414624
  63.7386099   4.3472645  49.9482559  47.4137804  15.9568387  52.4201249
  47.2970188  16.9013820  52.3179939  46.5930250  15.6541949  52.8087048
  57.3014339  10.6818523  43.2657841  58.1359943  10.2499722  43.0835316
  57.1398682  10.5100537  44.1934736  56.9560231   7.1850636  44.6314181
  56.9009035   7.0194908  43.6902625  56.3306286   7.8926669  44.7876370
  41.7452746   2.4218701  58.4575603  42.3911610   1.9117655  58.9462828
  41.5369897   3.1587382  59.0319028  54.2706138   9.4899548  63.9567743
  55.1397298   9.6640201  63.5954378  53.7912890  10.3093965  63.8343473
  48.4392318  16.6096649  55.6357177  49.3419565  16.6420259  55.9523672
  48.2129688  15.6797100  55.6503513  50.1945920  15.3627636  52.2967256
  49.2441551  15.3629497  52.1831628  50.4978406  14.6160370  51.7803290
  46.0850237  -0.4313682  62.5550617  46.9481698  -0.7876877  62.7653942
  45.5115648  -0.7699787  63.2426021  65.9298614  21.1988174  53.3613018
  66.5677024  21.0794922  52.6576358  65.8119457  22.1469018  53.4200970
  62.7388320  21.1515602  53.2974543  62.4006832  21.0356667  52.4095078
  63.6078088  20.7506767  53.2775549  58.5975136  23.0051079  49.2871434
  58.0340001  22.9141016  48.5187721  58.4827531  22.1850983  49.7673926
  63.2208103  22.3050454  59.2560748  63.2096744  21.9103252  58.3841252
  63.3828743  21.5716527  59.8494520  56.1439568  24.5002270  52.1255654
  56.9360860  24.1593095  51.7101953  56.3836218  24.6097245  53.0457807
  64.1774695  26.6722046  44.5985899  63.5262674  27.2576127  44.2119912
  64.9719057  27.2028241  44.6580936  58.1030322  23.7611184  44.9973033
  58.8761198  23.2140171  44.8585909  58.4555721  24.6255433  45.2087494
  59.9415364  25.0887566  58.2039932  59.6505230  25.9933197  58.0886599
  60.5772349  25.1304093  58.9184002  60.8671571  22.4664414  54.7941292
  61.4635143  22.2420437  54.0798255  60.9246543  21.7249160  55.3966740
  60.4396599  19.9203850  42.6291483  60.6922120  19.3985371  41.8674946
  59.5021159  19.7569995  42.7318166  65.4839882  18.9239628  50.4366226
  66.2702972  18.5059051  50.0856643  65.7478587  19.8285720  50.6047874
  65.6549960  24.3612478  45.1354883  65.0195793  24.4347105  45.8475787
  65.3247366  24.9506077  44.4573962  70.8848309  18.8614861  51.3399205
  71.6173481  18.2914078  51.5737034  70.1287665  18.4736462  51.7805710
  60.1592888  21.8231956  44.8315858  60.0429146  21.1476859  45.4996942
  60.2695148  21.3364330  44.0148011  62.5024429  21.2842103  48.5362547
  62.1382636  20.7572724  49.2475468  63.3591545  20.8940572  48.3629032
  68.4073730  12.5736435  55.7993813  68.0757055  13.4431846  55.5755028
  67.8119343  12.2572719  56.4787844  62.1429916  16.3132002  43.5323896
  62.3104318  17.1812239  43.8994367  61.9527085  16.4759284  42.6085185
  64.9005249  24.7748981  55.1989726  64.6005972  25.6774020  55.0905533
  64.5556309  24.5081165  56.0510879  58.3517731  21.2262778  51.2326430
  57.4268227  21.0938992  51.4404122  58.6002144  22.0056997  51.7296373
  68.3002393  17.2931522  52.8787163  67.3919270  17.2246930  52.5845924
  68.2489989  17.7703466  53.7068989  62.1219137  18.7689660  44.5170562
  62.0018762  19.2146711  45.3556043  61.4271725  19.1174978  43.9584100
  55.7126542  20.8696052  52.0670219  55.8418923  21.1230531  52.9809631
  55.0323993  21.4623760  51.7474874  59.8826029  31.5393302  48.1660694
  59.8050059  32.4901127  48.2449174  59.2787673  31.1939174  48.8235620
  62.3743259  18.7121167  60.8222060  61.5976593  19.2715087  60.8124925
  63.0133822  19.1977950  61.3436931  70.1664040  15.4947960  54.6565037
  69.5238420  15.7880493  54.0104832  69.6618968  15.3800880  55.4618234
  67.8204203  19.2411133  45.3450896  68.7322059  19.4738520  45.1698594
  67.3113850  19.8248177  44.7825975  60.6289631  21.5206620  60.3840027
  61.3704316  22.0591664  60.1074851  59.9226617  22.1472909  60.5411579
  66.1044971  23.6635761  58.9812189  66.5128327  23.2218171  58.2366821
  65.3822232  23.0888388  59.2346382  62.4576041  18.6008368  56.3545746
  63.3037236  19.0247781  56.4980395  62.3974679  17.9441992  57.0484309
  66.4273785  24.2236952  52.7364478  65.7982648  24.3882666  52.0340546
  66.0399448  24.6378561  53.5075442  70.3063017  25.1591389  50.0908842
  69.6214056  25.5390291  49.5405875  70.3906867  25.7686716  50.8240789
  65.6075486  16.2612736  58.0126920  65.3636418  17.0154797  57.4761195
  65.8835417  16.6398084  58.8474167  67.5613949  22.8051348  56.6904185
  67.7730844  23.4483108  56.0138566  67.5143697  21.9713665  56.2226115
  65.1640178  15.4169169  53.5940757  64.3024657  15.7150423  53.8857495
  65.1902613  15.6339568  52.6621790  61.9801747  23.9611360  50.0014563
  62.4440093  24.2399063  49.2119185  61.7158545  23.0594804  49.8187654
  58.8725828  23.5082841  52.9394326  59.4427185  23.9370110  52.3011811
  59.4633940  23.2265426  53.6378512  60.9170633  20.0834512  46.8104128
  61.6194677  20.5355556  47.2778054  60.5851262  19.4418331  47.4384021
  59.3650995  18.6746269  61.1855337  58.7349656  19.3562549  61.4190734
  59.2587083  18.5629350  60.2408476  54.6595967  18.3418065  52.1121262
  53.8695021  18.5975593  51.6361372  55.1507215  19.1566403  52.2173302
  68.6759777  25.6823304  54.8626542  69.4977221  25.2803491  54.5809224
  68.6722180  25.5791538  55.8142658  56.6110713  18.7062644  49.0704738
  55.8141876  18.8181338  49.5888234  56.3836305  19.0449296  48.2045629
  62.4416380  25.2307347  57.0187253  62.5060813  25.6927754  57.8545425
  61.7327304  24.6004712  57.1469563  52.9433670  18.5948555  54.5436252
  53.1941709  19.4795565  54.8093828  53.4793219  18.4153157  53.7711344
  76.7665770  22.0262052  51.2111514  76.0129478  21.4569450  51.0555518
  76.9013311  21.9924717  52.1582149  62.1564398  26.8975455  46.8866233
  62.0210073  27.7426990  47.3151081  62.6974211  27.0994732  46.1232167
  58.6431738  12.9767034  63.5480589  58.2498683  12.4233233  64.2228233
  59.4597878  13.2877613  63.9387106  55.6093795  24.4150893  47.4594158
  56.1218316  25.2094143  47.6099723  56.2616508  23.7177183  47.3927760
  57.4188680  27.5316649  49.5416912  57.5955308  28.4534614  49.3537895
  58.2145514  27.2175068  49.9711291  61.5599699  14.3924914  61.1400845
  62.3009412  14.9932067  61.0605308  61.7917621  13.6502551  60.5818888
  56.7041037  19.5781281  59.4179075  56.5894552  18.6766538  59.7186174
  55.8485554  19.8244978  59.0663891  63.7832874  27.5199021  61.0166575
  63.3396729  26.7335400  60.6987480  64.4450088  27.7078172  60.3510466
  58.5419996  29.0494823  55.5427254  59.0927421  28.9211886  54.7704248
  57.7031471  29.3489712  55.1922147  65.8814112  27.8001821  59.0447977
  65.8632588  28.6210702  58.5528246  66.8034033  27.6755896  59.2698118
  62.3387167  25.3145951  59.8871485  62.8715503  24.5534239  59.6570793
  61.8101248  25.0219602  60.6295640  65.5056862  10.4206016  55.4165127
  65.1621131  11.3107658  55.3404237  65.8735824  10.2307674  54.5534712
  53.5742712  22.7439547  48.2353729  54.4117934  23.1536555  48.0187437
  53.7520980  21.8038989  48.2053923  65.4707144  20.4114628  43.9237562
  64.9553768  21.1819232  44.1625949  65.1984453  19.7379764  44.5470623
  63.0554255  15.2564328  48.9822800  62.1995852  14.8671179  48.8028439
  63.4681207  15.3356289  48.1222586  64.5853402  12.7910672  53.3814360
  64.0818198  12.7540807  52.5682165  64.8784009  13.7003414  53.4411017
  60.8296288  12.8749401  52.3880542  61.6949285  12.6792210  52.0286431
  60.8973797  12.6459753  53.3149899  70.4441418  23.1646982  45.8590735
  69.6670861  22.8258142  45.4145897  71.1232899  23.1699605  45.1845700
  65.2593447  18.2841720  45.7497343  64.9543583  18.5987869  46.6007486
  66.2123890  18.3623140  45.7924676  63.7039879  24.4431943  47.3990297
  63.1761241  23.7084703  47.0863534  63.2027382  25.2206619  47.1530265
  68.6832725  22.6380964  52.5157343  68.0256400  23.3280225  52.6037472
  69.4873125  23.0277395  52.8591330  58.4358607  15.1051609  49.7596909
  59.0102359  14.8826791  49.0270102  59.0229589  15.1740304  50.5125510
  67.4938184  20.9925336  50.5661285  68.0070066  21.6255328  51.0682995
  68.1439408  20.3926532  50.2004645  58.7628194  17.1356070  43.7792794
  57.9265506  17.4730757  44.1002069  58.6232964  17.0005050  42.8419931
  60.7381275  11.9792858  48.4871978  60.0845687  11.6641875  47.8628593
  60.6961749  11.3568599  49.2131801  61.8492480  22.2612153  40.4025270
  60.9419541  22.0301407  40.6016419  62.3463512  21.4649773  40.5899252
  63.9719015  18.4674792  52.8119626  63.0541576  18.6889739  52.6541314
  64.3879159  18.5421102  51.9531333  64.7554063  19.8666207  47.9422306
  65.5025882  20.3787605  47.6329428  65.0245652  19.5450260  48.8026699
  63.0280713  22.3624748  44.9249260  62.1191932  22.0783781  45.0221730
  63.0575797  22.7823827  44.0652567  68.2599980  25.9731338  48.6940428
  67.8062307  25.1322248  48.7505618  67.6293947  26.6092736  49.0315208
  67.2032900  16.9023324  49.9241095  66.4655657  16.3900710  50.2551338
  67.4559673  16.4623705  49.1124372  66.7032920  27.8107834  49.6290246
  66.9955894  28.3712891  48.9102611  67.2131540  28.1036395  50.3843405
  67.3044527   9.6799576  50.5182864  67.6103404   8.8196939  50.2308780
  68.0297132  10.2717196  50.3181858  53.5968883  20.0830262  48.9064462
  53.3993283  19.4899623  48.1815529  53.0415547  19.7782472  49.6240401
  61.5765607  19.9753369  51.0259056  61.6314217  19.0227205  50.9501532
  60.7656809  20.1312808  51.5100354  62.7256801  23.9033492  42.2637339
  62.2876231  23.1869351  41.8042976  63.4667242  24.1309607  41.7022430
  59.5157967  18.5930428  48.7849434  58.7025832  18.8924599  49.1914627
  60.0116961  18.1986117  49.5023917  61.6666545  28.5888185  50.7183699
  61.6242724  28.8149032  49.7892231  62.5829244  28.3551560  50.8669500
  65.1132179  19.0572253  57.6164328  65.4681566  19.2843726  58.4758794
  65.7604310  19.3890630  56.9941584  70.8429916  22.1790689  48.3213657
  70.7047814  22.3692285  47.3934847  70.4866134  22.9410072  48.7781708
  59.0072042  16.1648784  54.4010669  59.6471421  16.0237543  53.7033633
  58.1749572  15.8783297  54.0249271  70.8699295  24.2467216  53.3324929
  71.3035802  24.1542505  54.1807983  71.5830876  24.2224716  52.6944945
  59.7832346  25.4651214  50.5145662  60.5772944  24.9701535  50.3128237
  59.0724038  24.9369078  50.1513367  64.6027190  27.8469310  54.8658029
  64.6564212  28.4160246  55.6335745  63.7341971  28.0171195  54.5012067
  56.0915109  19.6094296  46.5905414  55.1612697  19.5478752  46.8075377
  56.1872581  19.0870249  45.7942056  56.0100658  16.1349109  49.1783656
  56.2707475  17.0494442  49.0692817  56.8317830  15.6673552  49.3280269
  57.4825583  17.5486866  56.3482481  58.1548637  17.3404228  55.6995130
  56.6555370  17.3508952  55.9087713  71.7314845  24.2890917  55.8657814
  71.9250735  25.1936727  56.1117089  71.6315463  23.8298336  56.6996399
  63.3851155  14.1748807  58.3648142  62.7379070  14.8738757  58.2712618
  64.1552171  14.6084951  58.7324390  66.7929953  24.4397659  61.4398695
  66.6415460  24.2108211  60.5228779  66.7834633  25.3968261  61.4530040
  63.5615290  22.0129572  56.4244961  64.4907350  22.1640732  56.2513929
  63.1406320  22.1013593  55.5693608  62.3603622  26.0380236  54.1943499
  62.2214707  25.6699021  55.0669437  61.5718218  26.5527876  54.0227457
  62.9551774  31.1389333  45.5369035  63.1303529  30.6677376  46.3514658
  62.2684562  31.7655099  45.7650296  63.9108837  25.4161839  51.5832337
  63.5758669  25.3762609  52.4789987  63.4112782  24.7506555  51.1102747
  57.8853081  20.8229469  57.1084918  57.7472879  20.0909708  57.7096457
  58.7958004  20.7338369  56.8269106  66.8468028  22.7617873  41.8569396
  66.2297199  22.0364702  41.7602449  66.3784517  23.5227234  41.5136471
  60.5135381  20.5349428  56.5968597  61.2235000  19.8942621  56.5555216
  60.4704690  20.7862323  57.5194778  68.5022160  27.4716782  59.5175177
  68.4434706  26.7876002  58.8505760  68.9041678  28.2135772  59.0655803
  59.2264315  17.5214646  58.4164237  58.6901672  17.0705385  59.0685833
  58.6381024  17.6560555  57.6734701  57.5212859  34.2878696  52.3108896
  57.7609457  34.9197220  52.9887914  56.6782055  33.9366736  52.5974255
  58.6366574  16.9803298  40.9790701  57.7596041  16.8592099  40.6152947
  59.1124327  16.1889376  40.7269589  68.5039567  25.4356366  57.7489156
  67.6166346  25.0982288  57.8715555  69.0738118  24.7039397  57.9857922
  50.1568714  21.7680457  51.0732208  50.8439754  21.4542188  50.4853223
  50.0016843  22.6721822  50.7999459  54.9603437  16.6570654  55.5017231
  54.8761625  16.0496324  54.7667641  54.1386143  17.1479672  55.5026728
  62.0340721  30.0957818  54.7150400  61.9610892  30.9012790  55.2269704
  61.5918114  30.2949784  53.8898421  61.8230500  29.3329588  48.2253221
  61.0398022  29.8751268  48.3191446  62.5223245  29.8503568  48.6247462
  65.1327150  15.1424218  50.8687427  65.6295850  14.3894180  50.5488497
  64.3614132  15.1788534  50.3030636  72.9856908  20.8464583  52.5105718
  72.9746784  21.7289299  52.1399651  72.1174287  20.4936134  52.3160255
  64.4939404  29.9944652  56.8708558  65.2067376  30.6292117  56.7984460
  64.0029433  30.0908518  56.0548560  66.2156931  23.8995905  48.4425850
  65.2813210  24.0197367  48.2730554  66.3933600  22.9968372  48.1785860
  61.7162119  17.2841601  50.5959111  61.3459907  16.7312641  51.2840017
  62.2121212  16.6799734  50.0434111  69.6029482  19.7413224  48.9775884
  70.0689935  20.5741216  48.9036187  70.0536983  19.2758206  49.6821143
  59.5451318  27.7439096  57.6914129  60.2460777  28.3775579  57.8443523
  59.0746433  28.0853827  56.9309768  67.6705714  26.0857045  45.9762036
  67.9465557  25.9713640  46.8855910  66.8010212  25.6874530  45.9374209
  67.5746145  12.1093811  53.0166785  66.6609225  12.3398038  53.1848992
  68.0039247  12.1932255  53.8680818  67.3452604  20.2983703  55.5166679
  66.6924054  20.5459610  54.8619132  67.7232984  19.4847841  55.1829157
  64.3059778  30.3343396  49.6194850  64.4882172  29.5165052  50.0822602
  65.1292764  30.5511088  49.1819740  64.6401943  29.2611581  46.8809898
  65.1689710  28.7504036  46.2680060  64.9030163  28.9454112  47.7455431
  63.3940177  21.0403514  62.0032716  62.7180814  20.9397643  62.6735092
  64.2167811  20.8842728  62.4668714  55.1419036  27.2775451  54.6245232
  55.7272473  26.5319139  54.7573136  54.9443874  27.5879407  55.5081896
  57.9957691  30.3126698  49.6407674  57.3268066  30.7972826  49.1571714
  57.8570561  30.5595918  50.5551053  49.7336691  19.8481051  53.3449675
  49.7720790  19.3144642  54.1386793  49.2276983  19.3216256  52.7260652
  62.1362960  32.3470442  56.2390332  62.6881268  32.5102063  57.0039418
  62.4769153  32.9374879  55.5670357  57.1127453  14.6945591  56.8412217
  57.1768779  15.5560422  56.4289615  57.0494573  14.0819593  56.1084576
  56.5879725  16.7668724  60.4885251  57.2151764  16.3845801  61.1022776
  55.7307644  16.5482926  60.8540944  66.9873834  27.1731699  62.0938987
  67.5313738  27.7861657  61.5993942  66.4060679  27.7311277  62.6106000
  53.3645268  18.5745153  46.4203606  53.6598709  17.6655831  46.3670660
  52.4633304  18.5532892  46.0984609  65.2731347  30.2952417  53.2254015
  65.1482486  29.4942157  52.7164960  65.9310438  30.7898610  52.7367985
  56.8939515  16.6501150  52.4031155  56.1726101  17.2637117  52.2638628
  57.6832771  17.1858914  52.3247801  67.3366255  28.0961437  54.8533565
  66.3896591  27.9766788  54.7811891  67.6849028  27.2083935  54.9359826
  59.6965829  13.9855576  58.6771807  60.2200230  14.2317873  59.4398116
  59.4778162  14.8175611  58.2574944  55.0933110  16.2559251  46.5442931
  54.7645816  15.3756630  46.3618037  55.4472480  16.2006919  47.4319321
  64.3412689  27.8914153  51.0537917  64.1937651  26.9630861  51.2345487
  65.1666182  27.9134244  50.5694992  58.2074933  16.5432220  46.9118409
  58.5471005  17.0718142  46.1897017  58.6547053  16.8812627  47.6876976
  67.9446810  28.7142712  52.1402790  68.8693358  28.5085573  52.0027241
  67.7762114  28.4659113  53.0492131  60.9018374  14.9269271  56.3621477
  60.5615194  14.1277084  56.7642157  60.1957380  15.2270982  55.7898310
  61.5534846  12.0118584  54.8148800  62.3760915  11.5379062  54.6927691
  61.7972909  12.7909067  55.3147486  60.1943080  15.0406842  45.1111702
  60.9151443  15.4188095  44.6075419  59.5708384  15.7595719  45.2146680
  64.3374203  15.7451991  46.0470034  64.5537817  16.6276629  45.7458862
  63.8568270  15.3538204  45.3175676  59.0773424  18.7037704  52.6240779
  58.9318005  19.0178007  53.5165060  58.5998628  19.3222605  52.0711677
  60.9369807  15.6940252  52.6721668  60.9231376  14.7981346  52.3353966
  61.6542235  15.7010916  53.3059954  62.7895938  16.1277592  54.7174796
  62.5313716  17.0494663  54.7159126  62.2580978  15.7308027  55.4075260
  67.7342127  29.2328380  47.4964881  67.9079004  28.6674802  46.7438734
  68.2271018  30.0329274  47.3144371  53.5519086  21.2443049  55.5628440
  53.0072555  22.0202857  55.6948714  54.4298436  21.5913853  55.4047561
  60.3406703  14.5754633  47.9409238  60.4622614  13.6471279  48.1400126
  60.0508745  14.5893318  47.0287554  63.2097893  12.2609543  51.0775958
  63.2319590  12.3248876  50.1227938  63.6265952  11.4214052  51.2716464
  73.5881518  21.9964803  49.1155181  74.0312664  21.2472128  48.7174304
  72.7108028  21.9874939  48.7328913  68.7217299  28.5495144  44.5961779
  69.4168204  29.1701837  44.8149094  69.0640449  27.6990495  44.8714157
  54.3385108  20.3712945  58.4558597  53.5966844  20.5195580  59.0423227
  54.0177853  20.6321211  57.5925346  70.6208722  25.9994849  46.1249110
  71.1460046  26.3382122  45.3998430  70.5331075  25.0641865  45.9412245
  62.2828771  29.9128923  58.2538987  62.5915897  29.6678070  59.1261686
  63.0804253  30.1175562  57.7657857  62.3049383  32.0666833  50.4844363
  61.8654373  31.5743211  51.1777220  63.0557500  31.5239800  50.2436439
  54.7841722  28.2578374  50.4868991  55.6099742  27.9582146  50.1067635
  54.4335774  27.4885996  50.9358780  59.7523255  27.6104842  52.5566665
  59.1303264  26.9475547  52.2568893  60.4228122  27.6365974  51.8740313
  52.9850327  26.1764700  51.4457925  52.1482235  25.7486874  51.2641926
  52.9573972  26.3697143  52.3828716  59.8247783  16.0886630  62.1499171
  59.8735938  16.9648753  61.7676941  60.3670297  15.5464023  61.5770814
  70.3102628  26.6327753  61.4300308  69.5198172  26.6151892  60.8904808
  70.0735983  27.1716047  62.1849345  70.4300503  23.4820220  58.7433037
  70.4798508  23.3170227  59.6848559  70.3214427  22.6147479  58.3530917
  59.3136762  26.1608765  46.0325126  59.4624882  26.8444230  45.3791798
  60.1203206  26.1413855  46.5474581  67.7204266  19.4651148  60.0592343
  68.6214129  19.3257612  59.7676341  67.7952240  19.6305602  60.9990521
  62.0547071  16.8418002  58.9045530  61.1850380  17.1351568  58.6328118
  62.2906551  17.4258447  59.6252793  71.9318700  25.9017161  58.9875058
  71.6403508  26.2647142  59.8238519  71.3190831  25.1884169  58.8088390
  73.1314382  23.4670041  51.5077628  73.9661274  23.9059845  51.6715189
  73.2673511  22.9908694  50.6885874  70.1805888  21.0249776  57.4555116
  70.6560010  21.2177422  56.6473968  69.2571454  21.0808961  57.2098500
  57.0689395  22.1873943  47.0386195  56.8235437  21.2836273  47.2366405
  57.2385310  22.1891093  46.0965673  64.7586105  13.0597619  56.4210950
  65.2768049  13.7958646  56.0957439  64.4041238  13.3661613  57.2557709
  56.3385043  17.9202300  44.5372356  55.6454288  17.9946655  43.8812392
  56.0936794  17.1562644  45.0593873  65.0098699   9.4797902  51.9411847
  65.2900453   8.8121091  52.5672273  65.7949306   9.6726997  51.4286511
  62.8132168  28.6556896  43.5036873  62.2406135  29.2747083  43.0507345
  63.3864961  29.2056257  44.0376795  68.8807557  17.9015536  55.6883422
  69.8324980  18.0013633  55.7095646  68.7111008  17.1093804  56.1981506
  66.9021937  14.9871119  55.8742823  66.3071869  15.2676132  55.1789311
  66.6171634  15.4765020  56.6459564  66.0329427  28.9394046  44.6345455
  66.9660101  28.8739607  44.8378331  65.9452640  29.7750313  44.1759988
  68.6617444  28.2559916  41.5949403  68.5831076  27.9219780  42.4885161
  69.4827111  28.7481684  41.5940875  71.3595635  21.1221655  54.8025721
  71.3271955  20.1837656  54.9885405  71.9696259  21.2005692  54.0691546
  63.1978966  19.9917708  40.8452926  64.1438071  19.8623917  40.9141344
  62.8193211  19.2532370  41.3222354  71.5090124  17.9132699  54.8484005
  70.9929172  17.1291155  54.6613934  72.3930072  17.5851415  55.0130524
  69.1700851  11.6573714  50.8079817  68.9725672  11.3488803  51.6923149
  69.7800556  12.3835353  50.9377747  77.1772185  22.1837662  53.9431758
  77.9075574  21.9222950  54.5039462  76.5679131  21.4466384  53.9833826
  75.2587482  20.3245525  54.5406209  74.5320646  20.1901490  53.9322701
  74.8434769  20.6322353  55.3462928  63.0817659  24.0435455  62.3053582
  64.0020668  24.2214054  62.4993629  63.0467242  23.0991500  62.1533282
  61.3821883  17.9167685  40.7807811  60.4753339  17.6200798  40.8570524
  61.6597864  17.6197503  39.9142097  52.2999824  19.2374048  51.2306857
  51.9802608  18.3839356  50.9381231  51.7533252  19.4522626  51.9864824
  56.0779731  21.9536489  54.9476364  56.2965741  22.8853597  54.9664397
  56.4905505  21.5944464  55.7331167  62.9983949  12.4604575  46.9352052
  62.1884677  12.1151659  47.3107298  63.6868366  12.1512118  47.5239664
  64.9274497  11.5382621  48.5576349  65.4805536  11.9578075  49.2166372
  65.1644584  10.6118369  48.5999305  60.9507596  17.5269695  64.3379113
  60.8504323  18.4764052  64.2691204  60.7329139  17.1987934  63.4655183
  60.1520668  14.7754620  40.9219790  61.0139832  15.1009518  41.1815607
  60.3371012  13.9886116  40.4092856  52.1688084  22.8576960  53.1999979
  51.4751555  22.4430912  52.6869933  52.9161075  22.8997496  52.6033398
  68.3053304  13.6483146  48.0655013  67.7251973  14.3067951  47.6833065
  68.0389237  12.8260491  47.6542430  66.7556871  13.0488204  50.2676333
  67.2556649  13.1604739  49.4590652  67.3992479  12.7449257  50.9077142
  60.8138867  20.9566834  63.1544174  60.3305948  21.7567194  63.3608063
  60.8999806  20.9674779  62.2011618  54.0824826  22.7895213  51.0765994
  54.0595514  22.8882901  50.1247877  54.3925463  23.6360364  51.3983160
  56.7412204  24.8471368  55.1912608  57.6955458  24.8155311  55.1242540
  56.5424728  24.3861992  56.0062834  57.3311586  23.4172485  57.7583406
  58.1504475  23.9116563  57.7818243  57.6048394  22.5004453  57.7300973
  67.0878182  15.8083237  47.1211361  66.2004037  16.0932887  46.9031556
  67.5032171  15.6477000  46.2738638  70.4392718  15.8329758  50.8365700
  71.2153109  16.3226210  51.1090317  69.7140853  16.2587812  51.2937570
  72.8765277  16.5457377  51.8939641  73.4709768  16.3053113  51.1832949
  72.9491861  15.8264508  52.5213177  55.0962433  30.3890988  52.2082806
  54.9616901  29.6291389  51.6420804  54.6794495  31.1131888  51.7411595
  66.2321396  25.5727912  41.2159381  66.9357246  25.7777914  41.8317037
  65.5084045  26.1404673  41.4808465  67.0619206  21.3237773  47.3361651
  67.0054407  21.7806324  46.4969284  67.6147549  20.5628457  47.1584494
  70.8724012  17.1127505  48.1611771  70.6160946  16.7124140  48.9919979
  70.2476880  17.8271299  48.0361910  75.1836350  19.8523578  50.6683062
  74.6235908  19.9216767  51.4414624  74.5779853  19.6764563  49.9482559
  68.1408093  26.0110441  43.2657841  68.9753697  25.5791639  43.0835316
  67.9792436  25.8392454  44.1934736  67.7953985  22.5142554  44.6314181
  67.7402789  22.3486825  43.6902625  67.1700041  23.2218587  44.7876370
  52.5846500  17.7510618  58.4575603  53.2305364  17.2409572  58.9462828
  52.3763652  18.4879300  59.0319028  65.1099893  24.8191466  63.9567743
  65.9791052  24.9932118  63.5954378  64.6306644  25.6385883  63.8343473
  61.1050111  12.0150663  44.2099499  61.0928781  12.9592503  44.3667770
  61.9973533  11.8320808  43.9158960  59.2786073  31.9388567  55.6357177
  60.1813320  31.9712177  55.9523672  59.0523443  31.0089018  55.6503513
  61.0339675  30.6919553  52.2967256  60.0835306  30.6921415  52.1831628
  61.3372161  29.9452288  51.7803290  64.9202230   8.6093440  48.4645436
  64.1534626   8.0551926  48.6102118  65.3312935   8.6815308  49.3259587
  56.9243991  14.8978235  62.5550617  57.7875453  14.5415040  62.7653942
  56.3509402  14.5592130  63.2426021  76.7692368  36.5280092  53.3613018
  77.4070778  36.4086839  52.6576358  76.6513211  37.4760936  53.4200970
  73.5782075  36.4807520  53.2974543  73.2400586  36.3648585  52.4095078
  74.4471843  36.0798685  53.2775549  69.4368890  38.3342996  49.2871434
  68.8733755  38.2432933  48.5187721  69.3221285  37.5142901  49.7673926
  74.0601858  37.6342372  59.2560748  74.0490498  37.2395170  58.3841252
  74.2222497  36.9008444  59.8494520  66.9833322  39.8294188  52.1255654
  67.7754614  39.4885013  51.7101953  67.2229972  39.9389163  53.0457807
  70.7809119  40.4179483  58.2039932  70.4898985  41.3225114  58.0886599
  71.4166103  40.4596011  58.9184002  71.7065326  37.7956332  54.7941292
  72.3028898  37.5712354  54.0798255  71.7640297  37.0541077  55.3966740
  76.3233637  34.2531546  50.4366226  77.1096726  33.8350969  50.0856643
  76.5872341  35.1577638  50.6047874  76.4943714  39.6904396  45.1354883
  75.8589547  39.7639023  45.8475787  76.1641121  40.2797995  44.4573962
  81.7242064  34.1906779  51.3399205  82.4567236  33.6205996  51.5737034
  80.9681420  33.8028379  51.7805710  73.3418184  36.6134020  48.5362547
  72.9776391  36.0864641  49.2475468  74.1985300  36.2232489  48.3629032
  79.2467484  27.9028353  55.7993813  78.9150809  28.7723764  55.5755028
  78.6513098  27.5864637  56.4787844  72.9823671  31.6423920  43.5323896
  73.1498073  32.5104156  43.8994367  72.7920840  31.8051202  42.6085185
  75.7399004  40.1040899  55.1989726  75.4399727  41.0065938  55.0905533
  75.3950063  39.8373082  56.0510879  69.1911485  36.5554696  51.2326430
  68.2661982  36.4230910  51.4404122  69.4395898  37.3348915  51.7296373
  79.1396148  32.6223439  52.8787163  78.2313025  32.5538848  52.5845924
  79.0883743  33.0995384  53.7068989  66.5520296  36.1987969  52.0670219
  66.6812677  36.4522448  52.9809631  65.8717748  36.7915677  51.7474874
  73.2137013  34.0413085  60.8222060  72.4370347  34.6007005  60.8124925
  73.8527576  34.5269868  61.3436931  81.0057794  30.8239878  54.6565037
  80.3632174  31.1172411  54.0104832  80.5012723  30.7092798  55.4618234
  78.6597958  34.5703051  45.3450896  79.5715814  34.8030438  45.1698594
  78.1507605  35.1540095  44.7825975  71.4683386  36.8498538  60.3840027
  72.2098070  37.3883582  60.1074851  70.7620371  37.4764827  60.5411579
  76.9438725  38.9927679  58.9812189  77.3522081  38.5510089  58.2366821
  76.2215987  38.4180306  59.2346382  73.2969795  33.9300285  56.3545746
  74.1430991  34.3539699  56.4980395  73.2368433  33.2733910  57.0484309
  77.2667540  39.5528869  52.7364478  76.6376402  39.7174583  52.0340546
  76.8793202  39.9670479  53.5075442  81.1456772  40.4883307  50.0908842
  80.4607810  40.8682208  49.5405875  81.2300621  41.0978634  50.8240789
  76.4469241  31.5904654  58.0126920  76.2030173  32.3446714  57.4761195
  76.7229171  31.9690001  58.8474167  78.4007703  38.1343266  56.6904185
  78.6124599  38.7775026  56.0138566  78.3537452  37.3005583  56.2226115
  76.0033932  30.7461087  53.5940757  75.1418411  31.0442340  53.8857495
  76.0296367  30.9631486  52.6621790  72.8195502  39.2903277  50.0014563
  73.2833847  39.5690980  49.2119185  72.5552300  38.3886722  49.8187654
  69.7119583  38.8374759  52.9394326  70.2820940  39.2662027  52.3011811
  70.3027695  38.5557344  53.6378512  71.7564388  35.4126430  46.8104128
  72.4588431  35.8647473  47.2778054  71.4245016  34.7710249  47.4384021
  70.2044749  34.0038186  61.1855337  69.5743410  34.6854467  61.4190734
  70.0980837  33.8921268  60.2408476  65.4989722  33.6709982  52.1121262
  64.7088776  33.9267511  51.6361372  65.9900969  34.4858320  52.2173302
  79.5153531  41.0115222  54.8626542  80.3370975  40.6095409  54.5809224
  79.5115934  40.9083456  55.8142658  67.4504467  34.0354562  49.0704738
  66.6535631  34.1473256  49.5888234  67.2230059  34.3741214  48.2045629
  73.2810135  40.5599265  57.0187253  73.3454567  41.0219672  57.8545425
  72.5721059  39.9296630  57.1469563  63.7827425  33.9240473  54.5436252
  64.0335463  34.8087483  54.8093828  64.3186973  33.7445074  53.7711344
  87.6059524  37.3553970  51.2111514  86.8523233  36.7861368  51.0555518
  87.7407066  37.3216634  52.1582149  69.4825492  28.3058952  63.5480589
  69.0892438  27.7525151  64.2228233  70.2991632  28.6169531  63.9387106
  66.4487550  39.7442810  47.4594158  66.9612070  40.5386061  47.6099723
  67.1010263  39.0469101  47.3927760  68.2582435  42.8608567  49.5416912
  68.4349063  43.7826531  49.3537895  69.0539268  42.5466986  49.9711291
  72.3993453  29.7216831  61.1400845  73.1403167  30.3223984  61.0605308
  72.6311376  28.9794469  60.5818888  67.5434791  34.9073198  59.4179075
  67.4288306  34.0058456  59.7186174  66.6879309  35.1536895  59.0663891
  74.6226629  42.8490939  61.0166575  74.1790483  42.0627317  60.6987480
  75.2843842  43.0370089  60.3510466  69.3813750  44.3786740  55.5427254
  69.9321175  44.2503804  54.7704248  68.5425226  44.6781629  55.1922147
  76.7207867  43.1293739  59.0447977  76.7026342  43.9502620  58.5528246
  77.6427787  43.0047814  59.2698118  73.1780921  40.6437868  59.8871485
  73.7109258  39.8826156  59.6570793  72.6495002  40.3511520  60.6295640
  76.3450616  25.7497934  55.4165127  76.0014885  26.6399576  55.3404237
  76.7129579  25.5599592  54.5534712  76.3100899  35.7406545  43.9237562
  75.7947522  36.5111150  44.1625949  76.0378207  35.0671681  44.5470623
  73.8948010  30.5856246  48.9822800  73.0389606  30.1963096  48.8028439
  74.3074962  30.6648207  48.1222586  75.4247156  28.1202589  53.3814360
  74.9211952  28.0832724  52.5682165  75.7177763  29.0295332  53.4411017
  71.6690042  28.2041319  52.3880542  72.5343039  28.0084128  52.0286431
  71.7367551  27.9751671  53.3149899  81.2835173  38.4938900  45.8590735
  80.5064616  38.1550059  45.4145897  81.9626654  38.4991523  45.1845700
  76.0987202  33.6133637  45.7497343  75.7937338  33.9279787  46.6007486
  77.0517644  33.6915057  45.7924676  74.5433634  39.7723861  47.3990297
  74.0154995  39.0376620  47.0863534  74.0421137  40.5498537  47.1530265
  79.5226480  37.9672881  52.5157343  78.8650154  38.6572143  52.6037472
  80.3266879  38.3569313  52.8591330  69.2752361  30.4343527  49.7596909
  69.8496113  30.2118708  49.0270102  69.8623344  30.5032221  50.5125510
  78.3331939  36.3217254  50.5661285  78.8463820  36.9547246  51.0682995
  78.9833163  35.7218449  50.2004645  71.5775029  27.3084776  48.4871978
  70.9239441  26.9933793  47.8628593  71.5355503  26.6860516  49.2131801
  75.5954313  46.3001578  43.3221956  74.9216012  46.6033275  43.9306914
  75.9820135  47.1030658  42.9727413  74.8112770  33.7966709  52.8119626
  73.8935331  34.0181656  52.6541314  75.2272913  33.8713020  51.9531333
  75.5947817  35.1958125  47.9422306  76.3419636  35.7079522  47.6329428
  75.8639407  34.8742178  48.8026699  79.0993735  41.3023255  48.6940428
  78.6456062  40.4614165  48.7505618  78.4687702  41.9384654  49.0315208
  78.0426654  32.2315241  49.9241095  77.3049411  31.7192628  50.2551338
  78.2953428  31.7915623  49.1124372  77.5426674  43.1399752  49.6290246
  77.8349648  43.7004809  48.9102611  78.0525295  43.4328313  50.3843405
  78.1438282  25.0091493  50.5182864  78.4497159  24.1488857  50.2308780
  78.8690887  25.6009114  50.3181858  64.4362638  35.4122180  48.9064462
  64.2387038  34.8191541  48.1815529  63.8809302  35.1074390  49.6240401
  72.4159361  35.3045286  51.0259056  72.4707971  34.3519123  50.9501532
  71.6050564  35.4604726  51.5100354  70.3551721  33.9222346  48.7849434
  69.5419587  34.2216517  49.1914627  70.8510716  33.5278035  49.5023917
  72.5060299  43.9180103  50.7183699  72.4636478  44.1440949  49.7892231
  73.4222998  43.6843478  50.8669500  75.9525933  34.3864171  57.6164328
  76.3075321  34.6135644  58.4758794  76.5998064  34.7182547  56.9941584
  81.6823670  37.5082607  48.3213657  81.5441569  37.6984203  47.3934847
  81.3259889  38.2701989  48.7781708  69.8465796  31.4940702  54.4010669
  70.4865175  31.3529461  53.7033633  69.0143327  31.2075215  54.0249271
  81.7093050  39.5759134  53.3324929  82.1429556  39.4834423  54.1807983
  82.4224630  39.5516634  52.6944945  70.6226100  40.7943132  50.5145662
  71.4166699  40.2993452  50.3128237  69.9117792  40.2660995  50.1513367
  75.4420945  43.1761228  54.8658029  75.4957967  43.7452164  55.6335745
  74.5735726  43.3463113  54.5012067  66.9308864  34.9386214  46.5905414
  66.0006452  34.8770669  46.8075377  67.0266336  34.4162167  45.7942056
  66.8494413  31.4641027  49.1783656  67.1101230  32.3786360  49.0692817
  67.6711585  30.9965469  49.3280269  68.3219338  32.8778784  56.3482481
  68.9942391  32.6696146  55.6995130  67.4949124  32.6800870  55.9087713
  82.5708599  39.6182834  55.8657814  82.7644489  40.5228645  56.1117089
  82.4709217  39.1590253  56.6996399  74.2244910  29.5040725  58.3648142
  73.5772825  30.2030674  58.2712618  74.9945925  29.9376869  58.7324390
  77.6323708  39.7689577  61.4398695  77.4809214  39.5400129  60.5228779
  77.6228387  40.7260178  61.4530040  74.4009044  37.3421490  56.4244961
  75.3301104  37.4932649  56.2513929  73.9800074  37.4305510  55.5693608
  73.1997376  41.3672154  54.1943499  73.0608462  40.9990939  55.0669437
  72.4111972  41.8819794  54.0227457  74.7502591  40.7453757  51.5832337
  74.4152424  40.7054527  52.4789987  74.2506537  40.0798473  51.1102747
  68.7246835  36.1521387  57.1084918  68.5866633  35.4201626  57.7096457
  69.6351759  36.0630287  56.8269106  77.6861783  38.0909791  41.8569396
  77.0690953  37.3656619  41.7602449  77.2178271  38.8519151  41.5136471
  71.3529136  35.8641346  56.5968597  72.0628754  35.2234538  56.5555216
  71.3098444  36.1154241  57.5194778  79.3415915  42.8008699  59.5175177
  79.2828461  42.1167920  58.8505760  79.7435433  43.5427689  59.0655803
  70.0658070  32.8506564  58.4164237  69.5295427  32.3997302  59.0685833
  69.4774778  32.9852473  57.6734701  68.3606613  49.6170613  52.3108896
  68.6003212  50.2489137  52.9887914  67.5175810  49.2658653  52.5974255
  79.3433322  40.7648283  57.7489156  78.4560101  40.4274205  57.8715555
  79.9131873  40.0331315  57.9857922  65.7997191  31.9862572  55.5017231
  65.7155380  31.3788241  54.7667641  64.9779897  32.4771590  55.5026728
  72.8734475  45.4249736  54.7150400  72.8004647  46.2304707  55.2269704
  72.4311868  45.6241702  53.8898421  75.9720905  30.4716135  50.8687427
  76.4689604  29.7186098  50.5488497  75.2007886  30.5080452  50.3030636
  83.8250662  36.1756501  52.5105718  83.8140539  37.0581216  52.1399651
  82.9568042  35.8228052  52.3160255  75.3333159  45.3236570  56.8708558
  76.0461131  45.9584035  56.7984460  74.8423187  45.4200436  56.0548560
  77.0550686  39.2287822  48.4425850  76.1206964  39.3489285  48.2730554
  77.2327354  38.3260289  48.1785860  72.5555874  32.6133518  50.5959111
  72.1853661  32.0604559  51.2840017  73.0514966  32.0091652  50.0434111
  80.4423237  35.0705142  48.9775884  80.9083689  35.9033133  48.9036187
  80.8930737  34.6050123  49.6821143  70.3845072  43.0731013  57.6914129
  71.0854532  43.7067496  57.8443523  69.9140187  43.4145745  56.9309768
  78.5099468  41.4148963  45.9762036  78.7859312  41.3005558  46.8855910
  77.6403967  41.0166448  45.9374209  78.4139900  27.4385729  53.0166785
  77.5002980  27.6689956  53.1848992  78.8433001  27.5224173  53.8680818
  78.1846358  35.6275621  55.5166679  77.5317808  35.8751528  54.8619132
  78.5626738  34.8139759  55.1829157  75.1453532  45.6635314  49.6194850
  75.3275927  44.8456970  50.0822602  75.9686518  45.8803006  49.1819740
  75.4795698  44.5903499  46.8809898  76.0083464  44.0795954  46.2680060
  75.7423917  44.2746029  47.7455431  74.2333931  36.3695432  62.0032716
  73.5574568  36.2689561  62.6735092  75.0561565  36.2134646  62.4668714
  65.9812790  42.6067368  54.6245232  66.5666227  41.8611056  54.7573136
  65.7837629  42.9171325  55.5081896  68.8351446  45.6418616  49.6407674
  68.1661821  46.1264743  49.1571714  68.6964315  45.8887836  50.5551053
  60.5730445  35.1772969  53.3449675  60.6114545  34.6436559  54.1386793
  60.0670738  34.6508174  52.7260652  72.9756714  47.6762359  56.2390332
  73.5275022  47.8393981  57.0039418  73.3162908  48.2666797  55.5670357
  67.9521207  30.0237509  56.8412217  68.0162534  30.8852340  56.4289615
  67.8888328  29.4111511  56.1084576  67.4273480  32.0960642  60.4885251
  68.0545519  31.7137719  61.1022776  66.5701399  31.8774844  60.8540944
  77.8267588  42.5023617  62.0938987  78.3707492  43.1153575  61.5993942
  77.2454433  43.0603195  62.6106000  64.2039023  33.9037071  46.4203606
  64.4992464  32.9947749  46.3670660  63.3027058  33.8824810  46.0984609
  76.1125101  45.6244335  53.2254015  75.9876241  44.8234075  52.7164960
  76.7704192  46.1190528  52.7367985  67.7333270  31.9793067  52.4031155
  67.0119855  32.5929035  52.2638628  68.5226525  32.5150832  52.3247801
  78.1760010  43.4253355  54.8533565  77.2290345  43.3058706  54.7811891
  78.5242783  42.5375853  54.9359826  70.5359583  29.3147494  58.6771807
  71.0593985  29.5609790  59.4398116  70.3171916  30.1467529  58.2574944
  65.9326864  31.5851168  46.5442931  65.6039570  30.7048547  46.3618037
  66.2866235  31.5298837  47.4319321  75.1806443  43.2206071  51.0537917
  75.0331405  42.2922778  51.2345487  76.0059937  43.2426162  50.5694992
  69.0468687  31.8724138  46.9118409  69.3864760  32.4010059  46.1897017
  69.4940808  32.2104544  47.6876976  78.7840565  44.0434630  52.1402790
  79.7087112  43.8377491  52.0027241  78.6155868  43.7951031  53.0492131
  71.7412128  30.2561189  56.3621477  71.4008949  29.4569002  56.7642157
  71.0351134  30.5562900  55.7898310  72.3928600  27.3410501  54.8148800
  73.2154669  26.8670979  54.6927691  72.6366664  28.1200985  55.3147486
  71.0336835  30.3698760  45.1111702  71.7545197  30.7480013  44.6075419
  70.4102139  31.0887637  45.2146680  75.1767957  31.0743909  46.0470034
  75.3931572  31.9568547  45.7458862  74.6962025  30.6830122  45.3175676
  69.9167179  34.0329622  52.6240779  69.7711759  34.3469925  53.5165060
  69.4392382  34.6514522  52.0711677  71.7763562  31.0232170  52.6721668
  71.7625130  30.1273263  52.3353966  72.4935990  31.0302834  53.3059954
  73.6289692  31.4569510  54.7174796  73.3707470  32.3786581  54.7159126
  73.0974733  31.0599945  55.4075260  78.5735881  44.5620297  47.4964881
  78.7472759  43.9966720  46.7438734  79.0664772  45.3621192  47.3144371
  64.3912841  36.5734966  55.5628440  63.8466309  37.3494774  55.6948714
  65.2692191  36.9205771  55.4047561  71.1800458  29.9046550  47.9409238
  71.3016369  28.9763196  48.1400126  70.8902500  29.9185236  47.0287554
  74.0491648  27.5901461  51.0775958  74.0713345  27.6540794  50.1227938
  74.4659707  26.7505969  51.2716464  84.4275272  37.3256720  49.1155181
  84.8706418  36.5764045  48.7174304  83.5501783  37.3166857  48.7328913
  65.1778863  35.7004863  58.4558597  64.4360599  35.8487498  59.0423227
  64.8571607  35.9613128  57.5925346  81.4602477  41.3286767  46.1249110
  81.9853801  41.6674040  45.3998430  81.3724829  40.3933782  45.9412245
  73.1222525  45.2420841  58.2538987  73.4309652  44.9969988  59.1261686
  73.9198007  45.4467479  57.7657857  73.1443137  47.3958750  50.4844363
  72.7048128  46.9035129  51.1777220  73.8951254  46.8531718  50.2436439
  70.5917010  42.9396760  52.5566665  69.9697019  42.2767465  52.2568893
  71.2621877  42.9657891  51.8740313  70.6641537  31.4178548  62.1499171
  70.7129693  32.2940670  61.7676941  71.2064051  30.8755941  61.5770814
  81.1496383  41.9619671  61.4300308  80.3591927  41.9443810  60.8904808
  80.9129737  42.5007965  62.1849345  81.2694258  38.8112137  58.7433037
  81.3192263  38.6462145  59.6848559  81.1608181  37.9439396  58.3530917
  78.5598020  34.7943065  60.0592343  79.4607883  34.6549530  59.7676341
  78.6345995  34.9597520  60.9990521  72.8940826  32.1709920  58.9045530
  72.0244135  32.4643486  58.6328118  73.1300306  32.7550365  59.6252793
  82.7712455  41.2309079  58.9875058  82.4797263  41.5939059  59.8238519
  82.1584586  40.5176087  58.8088390  83.9708137  38.7961958  51.5077628
  84.8055028  39.2351763  51.6715189  84.1067266  38.3200612  50.6885874
  81.0199643  36.3541693  57.4555116  81.4953765  36.5469340  56.6473968
  80.0965208  36.4100879  57.2098500  75.5979859  28.3889537  56.4210950
  76.1161803  29.1250564  56.0957439  75.2434992  28.6953530  57.2557709
  67.1778797  33.2494218  44.5372356  66.4848042  33.3238573  43.8812392
  66.9330549  32.4854562  45.0593873  75.8492454  24.8089819  51.9411847
  76.1294207  24.1413008  52.5672273  76.6343060  25.0018915  51.4286511
  79.7201312  33.2307453  55.6883422  80.6718735  33.3305551  55.7095646
  79.5504762  32.4385722  56.1981506  77.7415691  30.3163037  55.8742823
  77.1465623  30.5968049  55.1789311  77.4565388  30.8056938  56.6459564
  76.8723182  44.2685963  44.6345455  77.8053855  44.2031525  44.8378331
  76.7846395  45.1042230  44.1759988  79.5011199  43.5851834  41.5949403
  79.4224830  43.2511697  42.4885161  80.3220865  44.0773602  41.5940875
  82.1989390  36.4513573  54.8025721  82.1665710  35.5129574  54.9885405
  82.8090013  36.5297610  54.0691546  82.3483878  33.2424617  54.8484005
  81.8322927  32.4583073  54.6613934  83.2323827  32.9143333  55.0130524
  80.0094605  26.9865632  50.8079817  79.8119426  26.6780720  51.6923149
  80.6194311  27.7127271  50.9377747  88.0165940  37.5129580  53.9431758
  88.7469328  37.2514868  54.5039462  87.4072885  36.7758302  53.9833826
  86.0981237  35.6537443  54.5406209  85.3714400  35.5193407  53.9322701
  85.6828524  35.9614271  55.3462928  73.9211413  39.3727372  62.3053582
  74.8414423  39.5505971  62.4993629  73.8860996  38.4283418  62.1533282
  63.1393578  34.5665966  51.2306857  62.8196362  33.7131274  50.9381231
  62.5927006  34.7814544  51.9864824  66.9173486  37.2828407  54.9476364
  67.1359495  38.2145515  54.9664397  67.3299259  36.9236381  55.7331167
  73.8377703  27.7896492  46.9352052  73.0278432  27.4443577  47.3107298
  74.5262120  27.4804036  47.5239664  75.7668252  26.8674539  48.5576349
  76.3199290  27.2869992  49.2166372  76.0038338  25.9410287  48.5999305
  71.7901351  32.8561613  64.3379113  71.6898078  33.8055970  64.2691204
  71.5722893  32.5279852  63.4655183  70.9914422  30.1046538  40.9219790
  71.8533586  30.4301436  41.1815607  71.1764766  29.3178034  40.4092856
  79.1447059  28.9775064  48.0655013  78.5645728  29.6359868  47.6833065
  78.8782992  28.1552409  47.6542430  77.5950625  28.3780122  50.2676333
  78.0950404  28.4896656  49.4590652  78.2386233  28.0741175  50.9077142
  71.6532621  36.2858751  63.1544174  71.1699703  37.0859112  63.3608063
  71.7393560  36.2966696  62.2011618  67.5805959  40.1763286  55.1912608
  68.5349212  40.1447229  55.1242540  67.3818482  39.7153910  56.0062834
  68.1705341  38.7464402  57.7583406  68.9898230  39.2408481  57.7818243
  68.4442148  37.8296370  57.7300973  77.9271937  31.1375155  47.1211361
  77.0397792  31.4224805  46.9031556  78.3425926  30.9768918  46.2738638
  81.2786473  31.1621676  50.8365700  82.0546863  31.6518128  51.1090317
  80.5534607  31.5879730  51.2937570  83.7159032  31.8749295  51.8939641
  84.3103522  31.6345031  51.1832949  83.7885615  31.1556425  52.5213177
  65.9356187  45.7182906  52.2082806  65.8010655  44.9583307  51.6420804
  65.5188250  46.4423806  51.7411595  77.0715150  40.9019829  41.2159381
  77.7751000  41.1069832  41.8317037  76.3477799  41.4696591  41.4808465
  77.9012961  36.6529690  47.3361651  77.8448162  37.1098242  46.4969284
  78.4541303  35.8920375  47.1584494  81.7117766  32.4419422  48.1611771
  81.4554701  32.0416058  48.9919979  81.0870635  33.1563216  48.0361910
  86.0230104  35.1815496  50.6683062  85.4629662  35.2508685  51.4414624
  85.4173608  35.0056480  49.9482559  78.9801848  41.3402358  43.2657841
  79.8147452  40.9083557  43.0835316  78.8186191  41.1684372  44.1934736
  78.6347740  37.8434472  44.6314181  78.5796544  37.6778743  43.6902625
  78.0093795  38.5510505  44.7876370  63.4240255  33.0802536  58.4575603
  64.0699118  32.5701490  58.9462828  63.2157406  33.8171218  59.0319028
  75.9493647  40.1483384  63.9567743  76.8184807  40.3224036  63.5954378
  75.4700399  40.9677800  63.8343473  71.9443865  27.3442581  44.2099499
  71.9322535  28.2884421  44.3667770  72.8367287  27.1612726  43.9158960
  70.1179827  47.2680485  55.6357177  71.0207074  47.3004095  55.9523672
  69.8917197  46.3380936  55.6503513  71.8733429  46.0211471  52.2967256
  70.9229060  46.0213333  52.1831628  72.1765915  45.2744206  51.7803290
  75.7595985  23.9385357  48.4645436  74.9928381  23.3843844  48.6102118
  76.1706690  24.0107226  49.3259587  67.7637746  30.2270153  62.5550617
  68.6269207  29.8706958  62.7653942  67.1903157  29.8884048  63.2426021
  87.6086123  51.8572010  53.3613018  88.2464533  51.7378757  52.6576358
  87.4906966  52.8052853  53.4200970  84.4175829  51.8099438  53.2974543
  84.0794341  51.6940502  52.4095078  85.2865597  51.4090603  53.2775549
  80.2762645  53.6634914  49.2871434  79.7127510  53.5724851  48.5187721
  80.1615040  52.8434818  49.7673926  84.8995612  52.9634289  59.2560748
  84.8884253  52.5687088  58.3841252  85.0616252  52.2300362  59.8494520
  77.8227077  55.1586106  52.1255654  78.6148369  54.8176930  51.7101953
  78.0623727  55.2681081  53.0457807  85.8562204  57.3305882  44.5985899
  85.2050183  57.9159962  44.2119912  86.6506566  57.8612077  44.6580936
  79.7817831  54.4195019  44.9973033  80.5548707  53.8724006  44.8585909
  80.1343230  55.2839268  45.2087494  81.6202873  55.7471401  58.2039932
  81.3292739  56.6517032  58.0886599  82.2559858  55.7887929  58.9184002
  82.5459080  53.1248250  54.7941292  83.1422652  52.9004272  54.0798255
  82.6034052  52.3832995  55.3966740  82.1184108  50.5787685  42.6291483
  82.3709629  50.0569206  41.8674946  81.1808668  50.4153830  42.7318166
  87.1627391  49.5823463  50.4366226  87.9490481  49.1642887  50.0856643
  87.4266096  50.4869556  50.6047874  87.3337469  55.0196314  45.1354883
  86.6983302  55.0930940  45.8475787  87.0034875  55.6089913  44.4573962
  92.5635818  49.5198697  51.3399205  93.2960990  48.9497913  51.5737034
  91.8075174  49.1320297  51.7805710  81.8380397  52.4815791  44.8315858
  81.7216655  51.8060694  45.4996942  81.9482657  51.9948165  44.0148011
  84.1811938  51.9425938  48.5362547  83.8170145  51.4156559  49.2475468
  85.0379054  51.5524407  48.3629032  90.0861239  43.2320271  55.7993813
  89.7544564  44.1015682  55.5755028  89.4906852  42.9156555  56.4787844
  83.8217425  46.9715838  43.5323896  83.9891827  47.8396074  43.8994367
  83.6314594  47.1343119  42.6085185  86.5792758  55.4332817  55.1989726
  86.2793481  56.3357855  55.0905533  86.2343818  55.1665000  56.0510879
  80.0305240  51.8846614  51.2326430  79.1055736  51.7522828  51.4404122
  80.2789653  52.6640833  51.7296373  89.9789902  47.9515357  52.8787163
  89.0706779  47.8830765  52.5845924  89.9277498  48.4287302  53.7068989
  83.8006646  49.4273495  44.5170562  83.6806271  49.8730546  45.3556043
  83.1059234  49.7758813  43.9584100  77.3914051  51.5279887  52.0670219
  77.5206432  51.7814366  52.9809631  76.7111502  52.1207595  51.7474874
  81.5613538  62.1977137  48.1660694  81.4837568  63.1484962  48.2449174
  80.9575182  61.8523010  48.8235620  84.0530768  49.3705002  60.8222060
  83.2764102  49.9298923  60.8124925  84.6921331  49.8561785  61.3436931
  91.8451548  46.1531795  54.6565037  91.2025929  46.4464328  54.0104832
  91.3406477  46.0384716  55.4618234  89.4991712  49.8994968  45.3450896
  90.4109568  50.1322355  45.1698594  88.9901359  50.4832013  44.7825975
  82.3077140  52.1790456  60.3840027  83.0491825  52.7175500  60.1074851
  81.6014126  52.8056745  60.5411579  87.7832480  54.3219596  58.9812189
  88.1915836  53.8802007  58.2366821  87.0609741  53.7472224  59.2346382
  84.1363550  49.2592203  56.3545746  84.9824745  49.6831617  56.4980395
  84.0762188  48.6025827  57.0484309  88.1061294  54.8820787  52.7364478
  87.4770157  55.0466501  52.0340546  87.7186957  55.2962396  53.5075442
  91.9850526  55.8175225  50.0908842  91.3001565  56.1974126  49.5405875
  92.0694376  56.4270551  50.8240789  87.2862995  46.9196571  58.0126920
  87.0423927  47.6738632  57.4761195  87.5622926  47.2981919  58.8474167
  89.2401458  53.4635184  56.6904185  89.4518353  54.1066944  56.0138566
  89.1931206  52.6297500  56.2226115  86.8427687  46.0753004  53.5940757
  85.9812166  46.3734258  53.8857495  86.8690122  46.2923403  52.6621790
  83.6589256  54.6195195  50.0014563  84.1227602  54.8982898  49.2119185
  83.3946054  53.7178640  49.8187654  80.5513337  54.1666677  52.9394326
  81.1214694  54.5953945  52.3011811  81.1421449  53.8849261  53.6378512
  82.5958142  50.7418347  46.8104128  83.2982186  51.1939391  47.2778054
  82.2638771  50.1002166  47.4384021  81.0438504  49.3330104  61.1855337
  80.4137164  50.0146385  61.4190734  80.9374592  49.2213186  60.2408476
  76.3383476  49.0001900  52.1121262  75.5482530  49.2559429  51.6361372
  76.8294724  49.8150238  52.2173302  90.3547286  56.3407139  54.8626542
  91.1764730  55.9387326  54.5809224  90.3509689  56.2375373  55.8142658
  78.2898222  49.3646479  49.0704738  77.4929385  49.4765174  49.5888234
  78.0623814  49.7033131  48.2045629  84.1203889  55.8891182  57.0187253
  84.1848322  56.3511590  57.8545425  83.4114813  55.2588547  57.1469563
  74.6221179  49.2532390  54.5436252  74.8729218  50.1379400  54.8093828
  75.1580728  49.0736992  53.7711344  98.4453279  52.6845888  51.2111514
  97.6916987  52.1153286  51.0555518  98.5800820  52.6508552  52.1582149
  83.8351907  57.5559290  46.8866233  83.6997582  58.4010826  47.3151081
  84.3761720  57.7578568  46.1232167  80.3219247  43.6350870  63.5480589
  79.9286192  43.0817068  64.2228233  81.1385387  43.9461448  63.9387106
  77.2881304  55.0734728  47.4594158  77.8005825  55.8677978  47.6099723
  77.9404017  54.3761018  47.3927760  79.0976189  58.1900484  49.5416912
  79.2742817  59.1118449  49.3537895  79.8933023  57.8758903  49.9711291
  83.2387208  45.0508749  61.1400845  83.9796921  45.6515902  61.0605308
  83.4705130  44.3086387  60.5818888  78.3828546  50.2365116  59.4179075
  78.2682061  49.3350373  59.7186174  77.5273063  50.4828813  59.0663891
  85.4620383  58.1782856  61.0166575  85.0184238  57.3919235  60.6987480
  86.1237597  58.3662007  60.3510466  80.2207505  59.7078658  55.5427254
  80.7714930  59.5795721  54.7704248  79.3818980  60.0073547  55.1922147
  87.5601621  58.4585656  59.0447977  87.5420097  59.2794537  58.5528246
  88.4821542  58.3339732  59.2698118  84.0174676  55.9729786  59.8871485
  84.5503012  55.2118074  59.6570793  83.4888757  55.6803438  60.6295640
  87.1844371  41.0789852  55.4165127  86.8408640  41.9691494  55.3404237
  87.5523333  40.8891509  54.5534712  75.2530221  53.4023382  48.2353729
  76.0905443  53.8120391  48.0187437  75.4308489  52.4622824  48.2053923
  87.1494653  51.0698463  43.9237562  86.6341277  51.8403068  44.1625949
  86.8771962  50.3963599  44.5470623  84.7341764  45.9148164  48.9822800
  83.8783361  45.5255014  48.8028439  85.1468716  45.9940125  48.1222586
  86.2640911  43.4494507  53.3814360  85.7605707  43.4124642  52.5682165
  86.5571518  44.3587250  53.4411017  82.5083797  43.5333237  52.3880542
  83.3736794  43.3376045  52.0286431  82.5761306  43.3043588  53.3149899
  92.1228927  53.8230818  45.8590735  91.3458370  53.4841977  45.4145897
  92.8020408  53.8283441  45.1845700  86.9380956  48.9425555  45.7497343
  86.6331092  49.2571704  46.6007486  87.8911399  49.0206975  45.7924676
  85.3827388  55.1015778  47.3990297  84.8548750  54.3668538  47.0863534
  84.8814891  55.8790455  47.1530265  90.3620234  53.2964799  52.5157343
  89.7043909  53.9864060  52.6037472  91.1660634  53.6861231  52.8591330
  80.1146116  45.7635445  49.7596909  80.6889868  45.5410626  49.0270102
  80.7017098  45.8324139  50.5125510  89.1725693  51.6509172  50.5661285
  89.6857575  52.2839163  51.0682995  89.8226917  51.0510367  50.2004645
  80.4415703  47.7939906  43.7792794  79.6053015  48.1314592  44.1002069
  80.3020473  47.6588885  42.8419931  82.4168784  42.6376694  48.4871978
  81.7633196  42.3225711  47.8628593  82.3749258  42.0152434  49.2131801
  83.5279988  52.9195989  40.4025270  82.6207050  52.6885242  40.6016419
  84.0251020  52.1233608  40.5899252  86.4348067  61.6293496  43.3221956
  85.7609766  61.9325193  43.9306914  86.8213889  62.4322576  42.9727413
  85.6506524  49.1258627  52.8119626  84.7329085  49.3473574  52.6541314
  86.0666668  49.2004938  51.9531333  86.4341572  50.5250043  47.9422306
  87.1813391  51.0371440  47.6329428  86.7033161  50.2034096  48.8026699
  84.7068222  53.0208584  44.9249260  83.7979441  52.7367616  45.0221730
  84.7363306  53.4407662  44.0652567  89.9387489  56.6315173  48.6940428
  89.4849816  55.7906083  48.7505618  89.3081456  57.2676571  49.0315208
  88.8820409  47.5607159  49.9241095  88.1443166  47.0484545  50.2551338
  89.1347182  47.1207541  49.1124372  88.3820429  58.4691670  49.6290246
  88.6743403  59.0296727  48.9102611  88.8919049  58.7620231  50.3843405
  88.9832036  40.3383411  50.5182864  89.2890913  39.4780774  50.2308780
  89.7084641  40.9301031  50.3181858  75.2756392  50.7414098  48.9064462
  75.0780792  50.1483458  48.1815529  74.7203056  50.4366308  49.6240401
  83.2553116  50.6337204  51.0259056  83.3101726  49.6811041  50.9501532
  82.4444318  50.7896643  51.5100354  84.4044310  54.5617327  42.2637339
  83.9663740  53.8453186  41.8042976  85.1454751  54.7893442  41.7022430
  81.1945476  49.2514264  48.7849434  80.3813341  49.5508434  49.1914627
  81.6904470  48.8569953  49.5023917  83.3454054  59.2472021  50.7183699
  83.3030233  59.4732867  49.7892231  84.2616753  59.0135395  50.8669500
  86.7919688  49.7156088  57.6164328  87.1469075  49.9427561  58.4758794
  87.4391819  50.0474465  56.9941584  92.5217425  52.8374524  48.3213657
  92.3835323  53.0276120  47.3934847  92.1653643  53.5993907  48.7781708
  80.6859551  46.8232619  54.4010669  81.3258930  46.6821378  53.7033633
  79.8537081  46.5367133  54.0249271  92.5486804  54.9051051  53.3324929
  92.9823311  54.8126340  54.1807983  93.2618385  54.8808552  52.6944945
  81.4619855  56.1235050  50.5145662  82.2560453  55.6285370  50.3128237
  80.7511547  55.5952913  50.1513367  86.2814699  58.5053145  54.8658029
  86.3351721  59.0744082  55.6335745  85.4129480  58.6755030  54.5012067
  77.7702618  50.2678132  46.5905414  76.8400206  50.2062587  46.8075377
  77.8660090  49.7454084  45.7942056  77.6888167  46.7932944  49.1783656
  77.9494984  47.7078278  49.0692817  78.5105339  46.3257387  49.3280269
  79.1613092  48.2070702  56.3482481  79.8336146  47.9988064  55.6995130
  78.3342879  48.0092788  55.9087713  93.4102354  54.9474752  55.8657814
  93.6038244  55.8520562  56.1117089  93.3102972  54.4882171  56.6996399
  85.0638664  44.8332642  58.3648142  84.4166579  45.5322592  58.2712618
  85.8339680  45.2668786  58.7324390  88.4717462  55.0981495  61.4398695
  88.3202969  54.8692046  60.5228779  88.4622142  56.0552096  61.4530040
  85.2402799  52.6713407  56.4244961  86.1694859  52.8224567  56.2513929
  84.8193829  52.7597428  55.5693608  84.0391131  56.6964072  54.1943499
  83.9002216  56.3282856  55.0669437  83.2505727  57.2111711  54.0227457
  84.6339283  61.7973168  45.5369035  84.8091038  61.3261211  46.3514658
  83.9472071  62.4238934  45.7650296  85.5896346  56.0745674  51.5832337
  85.2546178  56.0346444  52.4789987  85.0900291  55.4090390  51.1102747
  79.5640590  51.4813305  57.1084918  79.4260388  50.7493543  57.7096457
  80.4745513  51.3922205  56.8269106  88.5255537  53.4201709  41.8569396
  87.9084708  52.6948537  41.7602449  88.0572026  54.1811069  41.5136471
  82.1922890  51.1933264  56.5968597  82.9022509  50.5526456  56.5555216
  82.1492198  51.4446159  57.5194778  90.1809669  58.1300617  59.5175177
  90.1222215  57.4459837  58.8505760  90.5829187  58.8719607  59.0655803
  80.9051824  48.1798482  58.4164237  80.3689181  47.7289220  59.0685833
  80.3168533  48.3144391  57.6734701  79.2000368  64.9462531  52.3108896
  79.4396966  65.5781055  52.9887914  78.3569564  64.5950571  52.5974255
  80.3154083  47.6387133  40.9790701  79.4383550  47.5175934  40.6152947
  80.7911836  46.8473211  40.7269589  90.1827076  56.0940201  57.7489156
  89.2953855  55.7566123  57.8715555  90.7525627  55.3623232  57.9857922
  71.8356223  52.4264293  51.0732208  72.5227263  52.1126023  50.4853223
  71.6804352  53.3305657  50.7999459  76.6390946  47.3154489  55.5017231
  76.5549134  46.7080159  54.7667641  75.8173652  47.8063508  55.5026728
  83.7128230  60.7541653  54.7150400  83.6398401  61.5596625  55.2269704
  83.2705623  60.9533619  53.8898421  83.5018009  59.9913423  48.2253221
  82.7185531  60.5335104  48.3191446  84.2010754  60.5087403  48.6247462
  86.8114659  45.8008053  50.8687427  87.3083359  45.0478015  50.5488497
  86.0401641  45.8372370  50.3030636  94.6644417  51.5048418  52.5105718
  94.6534293  52.3873134  52.1399651  93.7961796  51.1519969  52.3160255
  86.1726913  60.6528487  56.8708558  86.8854885  61.2875952  56.7984460
  85.6816942  60.7492353  56.0548560  87.8944440  54.5579740  48.4425850
  86.9600719  54.6781203  48.2730554  88.0721109  53.6552207  48.1785860
  83.3949628  47.9425436  50.5959111  83.0247416  47.3896476  51.2840017
  83.8908721  47.3383569  50.0434111  91.2816991  50.3997059  48.9775884
  91.7477444  51.2325051  48.9036187  91.7324492  49.9342041  49.6821143
  81.2238827  58.4022931  57.6914129  81.9248286  59.0359414  57.8443523
  80.7533942  58.7437662  56.9309768  89.3493223  56.7440881  45.9762036
  89.6253066  56.6297475  46.8855910  88.4797721  56.3458366  45.9374209
  89.2533654  42.7677646  53.0166785  88.3396734  42.9981873  53.1848992
  89.6826756  42.8516090  53.8680818  89.0240113  50.9567538  55.5166679
  88.3711563  51.2043446  54.8619132  89.4020493  50.1431677  55.1829157
  85.9847287  60.9927232  49.6194850  86.1669681  60.1748888  50.0822602
  86.8080273  61.2094924  49.1819740  86.3189452  59.9195417  46.8809898
  86.8477218  59.4087871  46.2680060  86.5817672  59.6037947  47.7455431
  85.0727686  51.6987349  62.0032716  84.3968323  51.5981479  62.6735092
  85.8955320  51.5426563  62.4668714  76.8206545  57.9359286  54.6245232
  77.4059982  57.1902974  54.7573136  76.6231383  58.2463243  55.5081896
  79.6745200  60.9710533  49.6407674  79.0055575  61.4556661  49.1571714
  79.5358070  61.2179754  50.5551053  71.4124200  50.5064886  53.3449675
  71.4508299  49.9728477  54.1386793  70.9064492  49.9800092  52.7260652
  83.8150469  63.0054277  56.2390332  84.3668777  63.1685898  57.0039418
  84.1556662  63.5958715  55.5670357  78.7914962  45.3529427  56.8412217
  78.8556288  46.2144258  56.4289615  78.7282082  44.7403428  56.1084576
  78.2667234  47.4252559  60.4885251  78.8939273  47.0429637  61.1022776
  77.4095153  47.2066761  60.8540944  88.6661343  57.8315534  62.0938987
  89.2101247  58.4445493  61.5993942  88.0848188  58.3895113  62.6106000
  86.9518856  60.9536252  53.2254015  86.8269995  60.1525992  52.7164960
  87.6097947  61.4482446  52.7367985  78.5727024  47.3084985  52.4031155
  77.8513610  47.9220953  52.2638628  79.3620280  47.8442750  52.3247801
  89.0153764  58.7545273  54.8533565  88.0684100  58.6350624  54.7811891
  89.3636537  57.8667771  54.9359826  81.3753338  44.6439411  58.6771807
  81.8987739  44.8901708  59.4398116  81.1565671  45.4759446  58.2574944
  76.7720619  46.9143086  46.5442931  76.4433325  46.0340465  46.3618037
  77.1259989  46.8590755  47.4319321  86.0200198  58.5497989  51.0537917
  85.8725160  57.6214696  51.2345487  86.8453691  58.5718079  50.5694992
  79.8862442  47.2016056  46.9118409  80.2258514  47.7301977  46.1897017
  80.3334562  47.5396462  47.6876976  89.6234319  59.3726547  52.1402790
  90.5480867  59.1669409  52.0027241  89.4549623  59.1242949  53.0492131
  82.5805883  45.5853107  56.3621477  82.2402703  44.7860920  56.7642157
  81.8744889  45.8854817  55.7898310  83.2322354  42.6702419  54.8148800
  84.0548424  42.1962897  54.6927691  83.4760418  43.4492903  55.3147486
  81.8730589  45.6990677  45.1111702  82.5938951  46.0771930  44.6075419
  81.2495893  46.4179554  45.2146680  86.0161712  46.4035826  46.0470034
  86.2325326  47.2860464  45.7458862  85.5355779  46.0122040  45.3175676
  80.7560933  49.3621540  52.6240779  80.6105514  49.6761843  53.5165060
  80.2786137  49.9806440  52.0711677  82.6157316  46.3524088  52.6721668
  82.6018885  45.4565181  52.3353966  83.3329744  46.3594751  53.3059954
  84.4683447  46.7861428  54.7174796  84.2101225  47.7078498  54.7159126
  83.9368487  46.3891862  55.4075260  89.4129636  59.8912215  47.4964881
  89.5866513  59.3258637  46.7438734  89.9058527  60.6913110  47.3144371
  75.2306595  51.9026884  55.5628440  74.6860063  52.6786692  55.6948714
  76.1085945  52.2497688  55.4047561  82.0194212  45.2338468  47.9409238
  82.1410123  44.3055114  48.1400126  81.7296254  45.2477154  47.0287554
  84.8885402  42.9193378  51.0775958  84.9107099  42.9832711  50.1227938
  85.3053461  42.0797887  51.2716464  95.2669027  52.6548638  49.1155181
  95.7100173  51.9055963  48.7174304  94.3895537  52.6458774  48.7328913
  90.4004808  59.2078979  44.5961779  91.0955713  59.8285672  44.8149094
  90.7427958  58.3574331  44.8714157  76.0172617  51.0296780  58.4558597
  75.2754353  51.1779416  59.0423227  75.6965362  51.2905046  57.5925346
  92.2996231  56.6578685  46.1249110  92.8247555  56.9965958  45.3998430
  92.2118584  55.7225700  45.9412245  83.9616280  60.5712758  58.2538987
  84.2703406  60.3261905  59.1261686  84.7591762  60.7759397  57.7657857
  83.9836892  62.7250668  50.4844363  83.5441882  62.2327047  51.1777220
  84.7345009  62.1823636  50.2436439  76.4629231  58.9162209  50.4868991
  77.2887251  58.6165981  50.1067635  76.1123283  58.1469831  50.9358780
  81.4310764  58.2688677  52.5566665  80.8090773  57.6059382  52.2568893
  82.1015631  58.2949809  51.8740313  74.6637836  56.8348535  51.4457925
  73.8269744  56.4070710  51.2641926  74.6361481  57.0280979  52.3828716
  81.5035292  46.7470465  62.1499171  81.5523447  47.6232588  61.7676941
  82.0457806  46.2047858  61.5770814  91.9890137  57.2911588  61.4300308
  91.1985681  57.2735727  60.8904808  91.7523492  57.8299882  62.1849345
  92.1088012  54.1404055  58.7433037  92.1586017  53.9754062  59.6848559
  92.0001936  53.2731314  58.3530917  80.9924271  56.8192601  46.0325126
  81.1412391  57.5028065  45.3791798  81.7990714  56.7997691  46.5474581
  89.3991775  50.1234983  60.0592343  90.3001637  49.9841448  59.7676341
  89.4739749  50.2889438  60.9990521  83.7334580  47.5001838  58.9045530
  82.8637889  47.7935404  58.6328118  83.9694060  48.0842283  59.6252793
  93.6106209  56.5600996  58.9875058  93.3191017  56.9230977  59.8238519
  92.9978340  55.8468005  58.8088390  94.8101891  54.1253876  51.5077628
  95.6448783  54.5643680  51.6715189  94.9461020  53.6492529  50.6885874
  91.8593397  51.6833611  57.4555116  92.3347519  51.8761257  56.6473968
  90.9358963  51.7392797  57.2098500  78.7476904  52.8457778  47.0386195
  78.5022946  51.9420108  47.2366405  78.9172819  52.8474929  46.0965673
  86.4373614  43.7181455  56.4210950  86.9555558  44.4542481  56.0957439
  86.0828747  44.0245448  57.2557709  78.0172552  48.5786136  44.5372356
  77.3241796  48.6530491  43.8812392  77.7724303  47.8146479  45.0593873
  86.6886208  40.1381737  51.9411847  86.9687962  39.4704926  52.5672273
  87.4736815  40.3310833  51.4286511  84.4919677  59.3140731  43.5036873
  83.9193644  59.9330918  43.0507345  85.0652470  59.8640093  44.0376795
  90.5595066  48.5599371  55.6883422  91.5112489  48.6597469  55.7095646
  90.3898517  47.7677640  56.1981506  88.5809446  45.6454954  55.8742823
  87.9859378  45.9259967  55.1789311  88.2959143  46.1348855  56.6459564
  87.7116936  59.5977881  44.6345455  88.6447609  59.5323443  44.8378331
  87.6240149  60.4334148  44.1759988  90.3404953  58.9143751  41.5949403
  90.2618585  58.5803615  42.4885161  91.1614620  59.4065519  41.5940875
  93.0383144  51.7805491  54.8025721  93.0059464  50.8421492  54.9885405
  93.6483768  51.8589528  54.0691546  84.8766475  50.6501544  40.8452926
  85.8225580  50.5207752  40.9141344  84.4980720  49.9116206  41.3222354
  93.1877633  48.5716534  54.8484005  92.6716681  47.7874991  54.6613934
  94.0717581  48.2435251  55.0130524  90.8488360  42.3157550  50.8079817
  90.6513181  42.0072638  51.6923149  91.4588065  43.0419189  50.9377747
  98.8559694  52.8421498  53.9431758  99.5863083  52.5806786  54.5039462
  98.2466640  52.1050220  53.9833826  96.9374991  50.9829360  54.5406209
  96.2108155  50.8485325  53.9322701  96.5222278  51.2906189  55.3462928
  84.7605168  54.7019290  62.3053582  85.6808177  54.8797889  62.4993629
  84.7254751  53.7575335  62.1533282  83.0609392  48.5751520  40.7807811
  82.1540848  48.2784633  40.8570524  83.3385373  48.2781338  39.9142097
  73.9787333  49.8957884  51.2306857  73.6590117  49.0423192  50.9381231
  73.4320761  50.1106462  51.9864824  77.7567240  52.6120325  54.9476364
  77.9753250  53.5437432  54.9664397  78.1693014  52.2528299  55.7331167
  84.6771458  43.1188410  46.9352052  83.8672186  42.7735495  47.3107298
  85.3655875  42.8095954  47.5239664  86.6062006  42.1966457  48.5576349
  87.1593045  42.6161910  49.2166372  86.8432093  41.2702205  48.5999305
  82.6295105  48.1853530  64.3379113  82.5291832  49.1347887  64.2691204
  82.4116647  47.8571769  63.4655183  81.8308177  45.4338455  40.9219790
  82.6927341  45.7593354  41.1815607  82.0158521  44.6469951  40.4092856
  73.8475593  53.5160795  53.1999979  73.1539064  53.1014748  52.6869933
  74.5948584  53.5581332  52.6033398  89.9840813  44.3066982  48.0655013
  89.4039482  44.9651786  47.6833065  89.7176746  43.4844326  47.6542430
  88.4344380  43.7072040  50.2676333  88.9344158  43.8188574  49.4590652
  89.0779988  43.4033092  50.9077142  82.4926376  51.6150669  63.1544174
  82.0093457  52.4151029  63.3608063  82.5787315  51.6258614  62.2011618
  75.7612335  53.4479049  51.0765994  75.7383023  53.5466736  50.1247877
  76.0712972  54.2944200  51.3983160  78.4199713  55.5055204  55.1912608
  79.3742967  55.4739146  55.1242540  78.2212237  55.0445828  56.0062834
  79.0099095  54.0756320  57.7583406  79.8291984  54.5700399  57.7818243
  79.2835903  53.1588288  57.7300973  88.7665691  46.4667072  47.1211361
  87.8791546  46.7516723  46.9031556  89.1819680  46.3060836  46.2738638
  92.1180227  46.4913593  50.8365700  92.8940618  46.9810046  51.1090317
  91.3928362  46.9171647  51.2937570  94.5552786  47.2041212  51.8939641
  95.1497277  46.9636948  51.1832949  94.6279370  46.4848343  52.5213177
  76.7749942  61.0474823  52.2082806  76.6404410  60.2875224  51.6420804
  76.3582004  61.7715723  51.7411595  87.9108905  56.2311747  41.2159381
  88.6144755  56.4361749  41.8317037  87.1871554  56.7988509  41.4808465
  88.7406715  51.9821608  47.3361651  88.6841916  52.4390160  46.4969284
  89.2935058  51.2212293  47.1584494  92.5511521  47.7711340  48.1611771
  92.2948455  47.3707976  48.9919979  91.9264389  48.4855134  48.0361910
  96.8623859  50.5107413  50.6683062  96.3023417  50.5800603  51.4414624
  96.2567362  50.3348398  49.9482559  79.9319068  61.9444140  52.4201249
  79.8151452  62.8889573  52.3179939  79.1111514  61.6417702  52.8087048
  89.8195602  56.6694276  43.2657841  90.6541206  56.2375475  43.0835316
  89.6579945  56.4976290  44.1934736  89.4741494  53.1726389  44.6314181
  89.4190298  53.0070661  43.6902625  88.8487550  53.8802422  44.7876370
  74.2634009  48.4094454  58.4575603  74.9092873  47.8993408  58.9462828
  74.0551160  49.1463135  59.0319028  86.7887402  55.4775301  63.9567743
  87.6578561  55.6515954  63.5954378  86.3094153  56.2969718  63.8343473
  82.7837620  42.6734498  44.2099499  82.7716290  43.6176338  44.3667770
  83.6761042  42.4904644  43.9158960  80.9573582  62.5972402  55.6357177
  81.8600828  62.6296013  55.9523672  80.7310952  61.6672853  55.6503513
  82.7127184  61.3503389  52.2967256  81.7622815  61.3505250  52.1831628
  83.0159670  60.6036123  51.7803290  86.5989739  39.2677275  48.4645436
  85.8322135  38.7135762  48.6102118  87.0100444  39.3399144  49.3259587
  78.6031500  45.5562071  62.5550617  79.4662962  45.1998876  62.7653942
  78.0296911  45.2175966  63.2426021  98.4479877  67.1863927  53.3613018
  99.0858287  67.0670675  52.6576358  98.3300720  68.1344771  53.4200970
  95.2569584  67.1391355  53.2974543  94.9188095  67.0232420  52.4095078
  96.1259352  66.7382520  53.2775549  91.1156399  68.9926832  49.2871434
  90.5521264  68.9016769  48.5187721  91.0008794  68.1726736  49.7673926
  95.7389367  68.2926207  59.2560748  95.7278007  67.8979005  58.3841252
  95.9010006  67.5592280  59.8494520  88.6620831  70.4878023  52.1255654
  89.4542123  70.1468848  51.7101953  88.9017481  70.5972998  53.0457807
  96.6955958  72.6597799  44.5985899  96.0443938  73.2451880  44.2119912
  97.4900321  73.1903994  44.6580936  90.6211585  69.7486937  44.9973033
  91.3942461  69.2015924  44.8585909  90.9736984  70.6131186  45.2087494
  92.4596628  71.0763319  58.2039932  92.1686494  71.9808950  58.0886599
  93.0953612  71.1179846  58.9184002  93.3852835  68.4540167  54.7941292
  93.9816407  68.2296190  54.0798255  93.4427806  67.7124913  55.3966740
  92.9577863  65.9079603  42.6291483  93.2103384  65.3861124  41.8674946
  92.0202422  65.7445748  42.7318166  98.0021146  64.9115381  50.4366226
  98.7884235  64.4934804  50.0856643  98.2659850  65.8161473  50.6047874
  98.1731223  70.3488231  45.1354883  97.5377056  70.4222858  45.8475787
  97.8428630  70.9381830  44.4573962  92.6774152  67.8107709  44.8315858
  92.5610410  67.1352612  45.4996942  92.7876412  67.3240083  44.0148011
  95.0205693  67.2717856  48.5362547  94.6563900  66.7448477  49.2475468
  95.8772809  66.8816325  48.3629032 100.9254993  58.5612188  55.7993813
 100.5938318  59.4307599  55.5755028 100.3300607  58.2448472  56.4787844
  94.6611180  62.3007755  43.5323896  94.8285582  63.1687992  43.8994367
  94.4708349  62.4635037  42.6085185  97.4186513  70.7624734  55.1989726
  97.1187236  71.6649773  55.0905533  97.0737572  70.4956918  56.0510879
  90.8698994  67.2138531  51.2326430  89.9449491  67.0814745  51.4404122
  91.1183407  67.9932750  51.7296373 100.8183657  63.2807275  52.8787163
  99.9100534  63.2122683  52.5845924 100.7671252  63.7579219  53.7068989
  94.6400400  64.7565413  44.5170562  94.5200026  65.2022464  45.3556043
  93.9452989  65.1050731  43.9584100  88.2307805  66.8571805  52.0670219
  88.3600186  67.1106284  52.9809631  87.5505257  67.4499513  51.7474874
  92.4007293  77.5269055  48.1660694  92.3231322  78.4776880  48.2449174
  91.7968936  77.1814927  48.8235620  94.8924522  64.6996920  60.8222060
  94.1157856  65.2590840  60.8124925  95.5315085  65.1853703  61.3436931
 102.6845303  61.4823713  54.6565037 102.0419683  61.7756246  54.0104832
 102.1800232  61.3676633  55.4618234 100.3385467  65.2286886  45.3450896
 101.2503323  65.4614273  45.1698594  99.8295114  65.8123930  44.7825975
  93.1470895  67.5082373  60.3840027  93.8885579  68.0467417  60.1074851
  92.4407880  68.1348662  60.5411579  98.6226234  69.6511514  58.9812189
  99.0309590  69.2093924  58.2366821  97.9003496  69.0764141  59.2346382
  94.9757304  64.5884121  56.3545746  95.8218500  65.0123534  56.4980395
  94.9155942  63.9317745  57.0484309  98.9455049  70.2112705  52.7364478
  98.3163911  70.3758419  52.0340546  98.5580711  70.6254314  53.5075442
 102.8244281  71.1467142  50.0908842 102.1395319  71.5266044  49.5405875
 102.9088130  71.7562469  50.8240789  98.1256750  62.2488489  58.0126920
  97.8817682  63.0030550  57.4761195  98.4016680  62.6273837  58.8474167
 100.0795212  68.7927101  56.6904185 100.2912108  69.4358861  56.0138566
 100.0324961  67.9589418  56.2226115  97.6821441  61.4044922  53.5940757
  96.8205920  61.7026176  53.8857495  97.7083876  61.6215321  52.6621790
  94.4983011  69.9487113  50.0014563  94.9621356  70.2274816  49.2119185
  94.2339809  69.0470557  49.8187654  91.3907092  69.4958594  52.9394326
  91.9608449  69.9245863  52.3011811  91.9815204  69.2141179  53.6378512
  93.4351897  66.0710265  46.8104128  94.1375940  66.5231309  47.2778054
  93.1032525  65.4294084  47.4384021  91.8832258  64.6622022  61.1855337
  91.2530919  65.3438303  61.4190734  91.7768346  64.5505103  60.2408476
  87.1777231  64.3293818  52.1121262  86.3876285  64.5851346  51.6361372
  87.6688478  65.1442156  52.2173302 101.1941040  71.6699057  54.8626542
 102.0158484  71.2679244  54.5809224 101.1903443  71.5667291  55.8142658
  89.1291976  64.6938397  49.0704738  88.3323139  64.8057091  49.5888234
  88.9017568  65.0325049  48.2045629  94.9597644  71.2183100  57.0187253
  95.0242076  71.6803507  57.8545425  94.2508568  70.5880465  57.1469563
  85.4614934  64.5824308  54.5436252  85.7122972  65.4671318  54.8093828
  85.9974482  64.4028910  53.7711344  94.6745661  72.8851208  46.8866233
  94.5391336  73.7302743  47.3151081  95.2155474  73.0870485  46.1232167
  91.1613001  58.9642787  63.5480589  90.7679947  58.4108986  64.2228233
  91.9779141  59.2753366  63.9387106  88.1275059  70.4026646  47.4594158
  88.6399579  71.1969896  47.6099723  88.7797772  69.7052936  47.3927760
  89.9369944  73.5192402  49.5416912  90.1136572  74.4410367  49.3537895
  90.7326777  73.2050821  49.9711291  94.0780962  60.3800667  61.1400845
  94.8190675  60.9807820  61.0605308  94.3098885  59.6378304  60.5818888
  89.2222300  65.5657034  59.4179075  89.1075815  64.6642291  59.7186174
  88.3666818  65.8120731  59.0663891  96.3014138  73.5074774  61.0166575
  95.8577992  72.7211153  60.6987480  96.9631351  73.6953925  60.3510466
  91.0601259  75.0370576  55.5427254  91.6108684  74.9087639  54.7704248
  90.2212735  75.3365465  55.1922147  98.3995376  73.7877574  59.0447977
  98.3813851  74.6086455  58.5528246  99.3215296  73.6631649  59.2698118
  94.8568430  71.3021704  59.8871485  95.3896767  70.5409992  59.6570793
  94.3282511  71.0095355  60.6295640  98.0238125  56.4081770  55.4165127
  97.6802394  57.2983411  55.3404237  98.3917088  56.2183427  54.5534712
  86.0923976  68.7315300  48.2353729  86.9299198  69.1412308  48.0187437
  86.2702243  67.7914742  48.2053923  97.9888408  66.3990381  43.9237562
  97.4735031  67.1694985  44.1625949  97.7165716  65.7255517  44.5470623
  95.5735519  61.2440081  48.9822800  94.7177115  60.8546932  48.8028439
  95.9862471  61.3232042  48.1222586  97.1034665  58.7786425  53.3814360
  96.5999461  58.7416560  52.5682165  97.3965272  59.6879167  53.4411017
  93.3477551  58.8625154  52.3880542  94.2130548  58.6667963  52.0286431
  93.4155060  58.6335506  53.3149899 102.9622682  69.1522735  45.8590735
 102.1852125  68.8133895  45.4145897 103.6414163  69.1575358  45.1845700
  97.7774711  64.2717473  45.7497343  97.4724847  64.5863622  46.6007486
  98.7305153  64.3498893  45.7924676  96.2221143  70.4307696  47.3990297
  95.6942504  69.6960456  47.0863534  95.7208646  71.2082372  47.1530265
 101.2013989  68.6256717  52.5157343 100.5437663  69.3155978  52.6037472
 102.0054388  69.0153148  52.8591330  90.9539870  61.0927362  49.7596909
  91.5283622  60.8702544  49.0270102  91.5410853  61.1616057  50.5125510
 100.0119448  66.9801089  50.5661285 100.5251329  67.6131081  51.0682995
 100.6620672  66.3802285  50.2004645  91.2809458  63.1231823  43.7792794
  90.4446770  63.4606510  44.1002069  91.1414227  62.9880803  42.8419931
  93.2562538  57.9668611  48.4871978  92.6026950  57.6517628  47.8628593
  93.2143012  57.3444352  49.2131801  94.3673743  68.2487906  40.4025270
  93.4600805  68.0177160  40.6016419  94.8644775  67.4525526  40.5899252
  97.2741822  76.9585413  43.3221956  96.6003521  77.2617110  43.9306914
  97.6607644  77.7614494  42.9727413  96.4900278  64.4550545  52.8119626
  95.5722840  64.6765492  52.6541314  96.9060422  64.5296855  51.9531333
  97.2735326  65.8541960  47.9422306  98.0207145  66.3663358  47.6329428
  97.5426916  65.5326013  48.8026699  95.5461976  68.3500501  44.9249260
  94.6373196  68.0659534  45.0221730  95.5757060  68.7699580  44.0652567
 100.7781244  71.9607091  48.6940428 100.3243571  71.1198001  48.7505618
 100.1475211  72.5968489  49.0315208  99.7214163  62.8899077  49.9241095
  98.9836920  62.3776463  50.2551338  99.9740937  62.4499458  49.1124372
  99.2214183  73.7983587  49.6290246  99.5137157  74.3588644  48.9102611
  99.7312804  74.0912148  50.3843405  99.8225791  55.6675329  50.5182864
 100.1284668  54.8072692  50.2308780 100.5478396  56.2592949  50.3181858
  86.1150147  66.0706015  48.9064462  85.9174547  65.4775376  48.1815529
  85.5596811  65.7658225  49.6240401  94.0946870  65.9629122  51.0259056
  94.1495480  65.0102958  50.9501532  93.2838072  66.1188561  51.5100354
  95.2438064  69.8909245  42.2637339  94.8057494  69.1745104  41.8042976
  95.9848505  70.1185360  41.7022430  92.0339230  64.5806182  48.7849434
  91.2207096  64.8800352  49.1914627  92.5298225  64.1861870  49.5023917
  94.1847808  74.5763938  50.7183699  94.1423987  74.8024785  49.7892231
  95.1010507  74.3427313  50.8669500  97.6313442  65.0448006  57.6164328
  97.9862830  65.2719479  58.4758794  98.2785573  65.3766383  56.9941584
 103.3611179  68.1666442  48.3213657 103.2229078  68.3568038  47.3934847
 103.0047398  68.9285825  48.7781708  91.5253305  62.1524537  54.4010669
  92.1652684  62.0113296  53.7033633  90.6930836  61.8659050  54.0249271
  92.3013609  71.4526967  50.5145662  93.0954208  70.9577288  50.3128237
  91.5905301  70.9244831  50.1513367  97.1208454  73.8345063  54.8658029
  97.1745476  74.4035999  55.6335745  96.2523235  74.0046948  54.5012067
  88.6096373  65.5970049  46.5905414  87.6793961  65.5354505  46.8075377
  88.7053845  65.0746002  45.7942056  88.5281922  62.1224862  49.1783656
  88.7888739  63.0370195  49.0692817  89.3499094  61.6549305  49.3280269
  90.0006847  63.5362619  56.3482481  90.6729900  63.3279981  55.6995130
  89.1736633  63.3384705  55.9087713  95.9032419  60.1624560  58.3648142
  95.2560334  60.8614510  58.2712618  96.6733434  60.5960704  58.7324390
  99.3111217  70.4273412  61.4398695  99.1596723  70.1983964  60.5228779
  99.3015896  71.3844014  61.4530040  96.0796553  68.0005325  56.4244961
  97.0088613  68.1516485  56.2513929  95.6587583  68.0889346  55.5693608
  94.8784885  72.0255989  54.1943499  94.7395971  71.6574774  55.0669437
  94.0899481  72.5403629  54.0227457  95.4733037  77.1265086  45.5369035
  95.6484793  76.6553129  46.3514658  94.7865825  77.7530852  45.7650296
  96.4290100  71.4037592  51.5832337  96.0939933  71.3638362  52.4789987
  95.9294046  70.7382308  51.1102747  90.4034344  66.8105222  57.1084918
  90.2654142  66.0785461  57.7096457  91.3139268  66.7214122  56.8269106
  99.3649292  68.7493626  41.8569396  98.7478462  68.0240455  41.7602449
  98.8965780  69.5102987  41.5136471  93.0316645  66.5225182  56.5968597
  93.7416263  65.8818374  56.5555216  92.9885953  66.7738076  57.5194778
 101.0203423  73.4592535  59.5175177 100.9615970  72.7751755  58.8505760
 101.4222942  74.2011525  59.0655803  91.7445579  63.5090399  58.4164237
  91.2082936  63.0581138  59.0685833  91.1562287  63.6436308  57.6734701
  90.0394122  80.2754449  52.3108896  90.2790721  80.9072973  52.9887914
  89.1963319  79.9242489  52.5974255  91.1547838  62.9679051  40.9790701
  90.2777304  62.8467852  40.6152947  91.6305591  62.1765129  40.7269589
 101.0220831  71.4232119  57.7489156 100.1347610  71.0858041  57.8715555
 101.5919382  70.6915150  57.9857922  82.6749978  67.7556211  51.0732208
  83.3621018  67.4417941  50.4853223  82.5198107  68.6597575  50.7999459
  87.4784700  62.6446407  55.5017231  87.3942889  62.0372077  54.7667641
  86.6567406  63.1355425  55.5026728  94.5521984  76.0833571  54.7150400
  94.4792156  76.8888543  55.2269704  94.1099377  76.2825537  53.8898421
  94.3411764  75.3205341  48.2253221  93.5579286  75.8627021  48.3191446
  95.0404509  75.8379321  48.6247462  97.6508414  61.1299971  50.8687427
  98.1477113  60.3769933  50.5488497  96.8795395  61.1664287  50.3030636
  97.0120668  75.9820405  56.8708558  97.7248640  76.6167870  56.7984460
  96.5210696  76.0784271  56.0548560  98.7338195  69.8871658  48.4425850
  97.7994473  70.0073120  48.2730554  98.9114863  68.9844125  48.1785860
  94.2343383  63.2717354  50.5959111  93.8641170  62.7188394  51.2840017
  94.7302475  62.6675487  50.0434111 102.1210746  65.7288977  48.9775884
 102.5871198  66.5616969  48.9036187 102.5718246  65.2633959  49.6821143
  92.0632581  73.7314849  57.6914129  92.7642041  74.3651332  57.8443523
  91.5927696  74.0729580  56.9309768 100.1886977  72.0732798  45.9762036
 100.4646821  71.9589393  46.8855910  99.3191476  71.6750283  45.9374209
 100.0927409  58.0969564  53.0166785  99.1790488  58.3273791  53.1848992
 100.5220510  58.1808008  53.8680818  99.8633867  66.2859456  55.5166679
  99.2105317  66.5335364  54.8619132 100.2414247  65.4723594  55.1829157
  96.8241041  76.3219149  49.6194850  97.0063436  75.5040805  50.0822602
  97.6474027  76.5386842  49.1819740  97.1583207  75.2487334  46.8809898
  97.6870973  74.7379789  46.2680060  97.4211426  74.9329865  47.7455431
  95.9121440  67.0279267  62.0032716  95.2362077  66.9273396  62.6735092
  96.7349074  66.8718481  62.4668714  87.6600299  73.2651204  54.6245232
  88.2453736  72.5194892  54.7573136  87.4625138  73.5755160  55.5081896
  90.5138954  76.3002451  49.6407674  89.8449330  76.7848579  49.1571714
  90.3751824  76.5471672  50.5551053  82.2517954  65.8356804  53.3449675
  82.2902054  65.3020395  54.1386793  81.7458247  65.3092009  52.7260652
  94.6544223  78.3346195  56.2390332  95.2062531  78.4977816  57.0039418
  94.9950417  78.9250632  55.5670357  89.6308716  60.6821344  56.8412217
  89.6950043  61.5436175  56.4289615  89.5675837  60.0695346  56.1084576
  89.1060989  62.7544477  60.4885251  89.7333028  62.3721554  61.1022776
  88.2488908  62.5358679  60.8540944  99.5055097  73.1607452  62.0938987
 100.0495001  73.7737410  61.5993942  98.9241942  73.7187031  62.6106000
  85.8826532  64.5620906  46.4203606  86.1779973  63.6531584  46.3670660
  84.9814567  64.5408645  46.0984609  97.7912610  76.2828170  53.2254015
  97.6663750  75.4817910  52.7164960  98.4491701  76.7774363  52.7367985
  89.4120779  62.6376903  52.4031155  88.6907364  63.2512870  52.2638628
  90.2014034  63.1734667  52.3247801  99.8547519  74.0837190  54.8533565
  98.9077854  73.9642541  54.7811891 100.2030292  73.1959688  54.9359826
  92.2147092  59.9731329  58.6771807  92.7381494  60.2193626  59.4398116
  91.9959425  60.8051364  58.2574944  87.6114373  62.2435004  46.5442931
  87.2827079  61.3632383  46.3618037  87.9653744  62.1882672  47.4319321
  96.8593952  73.8789906  51.0537917  96.7118914  72.9506614  51.2345487
  97.6847446  73.9009997  50.5694992  90.7256196  62.5307973  46.9118409
  91.0652269  63.0593895  46.1897017  91.1728317  62.8688380  47.6876976
 100.4628074  74.7018465  52.1402790 101.3874621  74.4961326  52.0027241
 100.2943377  74.4534866  53.0492131  93.4199637  60.9145024  56.3621477
  93.0796458  60.1152837  56.7642157  92.7138643  61.2146735  55.7898310
  94.0716109  57.9994337  54.8148800  94.8942178  57.5254815  54.6927691
  94.3154173  58.7784820  55.3147486  92.7124343  61.0282595  45.1111702
  93.4332706  61.4063848  44.6075419  92.0889648  61.7471472  45.2146680
  96.8555466  61.7327744  46.0470034  97.0719081  62.6152382  45.7458862
  96.3749534  61.3413957  45.3175676  91.5954688  64.6913457  52.6240779
  91.4499268  65.0053760  53.5165060  91.1179891  65.3098358  52.0711677
  93.4551071  61.6816005  52.6721668  93.4412639  60.7857099  52.3353966
  94.1723499  61.6886669  53.3059954  95.3077201  62.1153345  54.7174796
  95.0494979  63.0370416  54.7159126  94.7762242  61.7183780  55.4075260
 100.2523390  75.2204133  47.4964881 100.4260268  74.6550555  46.7438734
 100.7452281  76.0205027  47.3144371  86.0700350  67.2318802  55.5628440
  85.5253818  68.0078610  55.6948714  86.9479700  67.5789606  55.4047561
  92.8587967  60.5630386  47.9409238  92.9803878  59.6347032  48.1400126
  92.5690009  60.5769072  47.0287554  95.7279157  58.2485296  51.0775958
  95.7500854  58.3124629  50.1227938  96.1447216  57.4089805  51.2716464
 101.2398563  74.5370897  44.5961779 101.9349467  75.1577590  44.8149094
 101.5821713  73.6866248  44.8714157  86.8566372  66.3588698  58.4558597
  86.1148108  66.5071333  59.0423227  86.5359116  66.6196964  57.5925346
 103.1389986  71.9870603  46.1249110 103.6641310  72.3257875  45.3998430
 103.0512338  71.0517618  45.9412245  94.8010034  75.9004676  58.2538987
  95.1097161  75.6553823  59.1261686  95.5985516  76.1051315  57.7657857
  94.8230646  78.0542586  50.4844363  94.3835637  77.5618965  51.1777220
  95.5738763  77.5115553  50.2436439  87.3022985  74.2454127  50.4868991
  88.1281005  73.9457899  50.1067635  86.9517037  73.4761749  50.9358780
  92.2704519  73.5980595  52.5566665  91.6484528  72.9351300  52.2568893
  92.9409386  73.6241727  51.8740313  85.5031590  72.1640453  51.4457925
  84.6663499  71.7362627  51.2641926  85.4755236  72.3572896  52.3828716
  92.3429046  62.0762383  62.1499171  92.3917202  62.9524506  61.7676941
  92.8851560  61.5339776  61.5770814 102.8283892  72.6203506  61.4300308
 102.0379435  72.6027645  60.8904808 102.5917246  73.1591800  62.1849345
 102.9481767  69.4695973  58.7433037 102.9979772  69.3045980  59.6848559
 102.8395690  68.6023232  58.3530917  91.8318026  72.1484518  46.0325126
  91.9806146  72.8319983  45.3791798  92.6384469  72.1289608  46.5474581
 100.2385529  65.4526901  60.0592343 101.1395392  65.3133365  59.7676341
 100.3133504  65.6181355  60.9990521  94.5728335  62.8293755  58.9045530
  93.7031644  63.1227321  58.6328118  94.8087815  63.4134200  59.6252793
 102.6987152  67.0125529  57.4555116 103.1741273  67.2053175  56.6473968
 101.7752717  67.0684715  57.2098500  89.5870658  68.1749696  47.0386195
  89.3416700  67.2712026  47.2366405  89.7566573  68.1766846  46.0965673
  97.2767368  59.0473372  56.4210950  97.7949312  59.7834399  56.0957439
  96.9222501  59.3537366  57.2557709  88.8566306  63.9078053  44.5372356
  88.1635551  63.9822408  43.8812392  88.6118058  63.1438397  45.0593873
  97.5279963  55.4673655  51.9411847  97.8081716  54.7996844  52.5672273
  98.3130569  55.6602750  51.4286511  95.3313431  74.6432649  43.5036873
  94.7587398  75.2622836  43.0507345  95.9046225  75.1932010  44.0376795
 101.3988821  63.8891289  55.6883422 102.3506244  63.9889386  55.7095646
 101.2292271  63.0969557  56.1981506  99.4203200  60.9746872  55.8742823
  98.8253132  61.2551885  55.1789311  99.1352897  61.4640773  56.6459564
  98.5510691  74.9269799  44.6345455  99.4841364  74.8615360  44.8378331
  98.4633904  75.7626066  44.1759988 101.1798707  74.2435669  41.5949403
 101.1012339  73.9095533  42.4885161 102.0008374  74.7357437  41.5940875
  95.7160230  65.9793461  40.8452926  96.6619334  65.8499670  40.9141344
  95.3374474  65.2408123  41.3222354 101.6882114  57.6449467  50.8079817
 101.4906935  57.3364556  51.6923149 102.2981820  58.3711106  50.9377747
  95.5998922  70.0311208  62.3053582  96.5201932  70.2089807  62.4993629
  95.5648505  69.0867253  62.1533282  93.9003147  63.9043438  40.7807811
  92.9934602  63.6076551  40.8570524  94.1779128  63.6073256  39.9142097
  84.8181087  65.2249801  51.2306857  84.4983871  64.3715109  50.9381231
  84.2714515  65.4398379  51.9864824  88.5960995  67.9412242  54.9476364
  88.8147004  68.8729350  54.9664397  89.0086768  67.5820217  55.7331167
  95.5165212  58.4480328  46.9352052  94.7065941  58.1027413  47.3107298
  96.2049629  58.1387871  47.5239664  97.4455761  57.5258374  48.5576349
  97.9986799  57.9453828  49.2166372  97.6825847  56.5994122  48.5999305
  93.4688860  63.5145448  64.3379113  93.3685587  64.4639805  64.2691204
  93.2510402  63.1863687  63.4655183  92.6701931  60.7630373  40.9219790
  93.5321095  61.0885271  41.1815607  92.8552275  59.9761869  40.4092856
  84.6869347  68.8452713  53.1999979  83.9932819  68.4306666  52.6869933
  85.4342338  68.8873249  52.6033398 100.8234568  59.6358899  48.0655013
 100.2433237  60.2943704  47.6833065 100.5570500  58.8136244  47.6542430
  99.2738134  59.0363957  50.2676333  99.7737913  59.1480492  49.4590652
  99.9173742  58.7325010  50.9077142  93.3320130  66.9442587  63.1544174
  92.8487212  67.7442947  63.3608063  93.4181069  66.9550532  62.2011618
  86.6006090  68.7770967  51.0765994  86.5776778  68.8758654  50.1247877
  86.9106726  69.6236117  51.3983160  89.2593467  70.8347122  55.1912608
  90.2136721  70.8031064  55.1242540  89.0605991  70.3737745  56.0062834
  89.8492850  69.4048238  57.7583406  90.6685739  69.8992316  57.7818243
  90.1229657  68.4880206  57.7300973  99.6059446  61.7958990  47.1211361
  98.7185301  62.0808641  46.9031556 100.0213435  61.6352753  46.2738638
 102.9573982  61.8205511  50.8365700 103.7334372  62.3101963  51.1090317
 102.2322116  62.2463565  51.2937570  87.6143696  76.3766741  52.2082806
  87.4798164  75.6167142  51.6420804  87.1975759  77.1007641  51.7411595
  98.7502659  71.5603665  41.2159381  99.4538509  71.7653667  41.8317037
  98.0265308  72.1280426  41.4808465  99.5800470  67.3113526  47.3361651
  99.5235671  67.7682077  46.4969284 100.1328812  66.5504210  47.1584494
 103.3905275  63.1003258  48.1611771 103.1342210  62.6999893  48.9919979
 102.7658144  63.8147052  48.0361910  90.7712822  77.2736058  52.4201249
  90.6545206  78.2181491  52.3179939  89.9505268  76.9709620  52.8087048
 100.6589357  71.9986194  43.2657841 101.4934961  71.5667392  43.0835316
 100.4973700  71.8268207  44.1934736 100.3135249  68.5018307  44.6314181
 100.2584053  68.3362578  43.6902625  99.6881304  69.2094340  44.7876370
  85.1027764  63.7386371  58.4575603  85.7486627  63.2285325  58.9462828
  84.8944915  64.4755053  59.0319028  97.6281156  70.8067219  63.9567743
  98.4972316  70.9807871  63.5954378  97.1487908  71.6261636  63.8343473
  93.6231374  58.0026416  44.2099499  93.6110044  58.9468256  44.3667770
  94.5154796  57.8196561  43.9158960  91.7967336  77.9264320  55.6357177
  92.6994583  77.9587930  55.9523672  91.5704706  76.9964771  55.6503513
  93.5520938  76.6795306  52.2967256  92.6016569  76.6797168  52.1831628
  93.8553424  75.9328041  51.7803290  97.4383494  54.5969193  48.4645436
  96.6715890  54.0427679  48.6102118  97.8494199  54.6691061  49.3259587
  89.4425255  60.8853989  62.5550617  90.3056716  60.5290793  62.7653942
  88.8690666  60.5467883  63.2426021 101.9550154  84.3218749  49.2871434
 101.3915019  84.2308686  48.5187721 101.8402549  83.5018654  49.7673926
  99.5014586  85.8169941  52.1255654 100.2935878  85.4760766  51.7101953
  99.7411236  85.9264916  53.0457807 101.4605340  85.0778854  44.9973033
 102.2336216  84.5307841  44.8585909 101.8130738  85.9423104  45.2087494
 103.5167906  83.1399626  44.8315858 103.4004164  82.4644530  45.4996942
 103.6270166  82.6532000  44.0148011 101.7092749  82.5430449  51.2326430
 100.7843245  82.4106663  51.4404122 101.9577162  83.3224668  51.7296373
  99.0701560  82.1863722  52.0670219  99.1993941  82.4398201  52.9809631
  98.3899011  82.7791430  51.7474874 102.2300846  84.8250512  52.9394326
 102.8002203  85.2537780  52.3011811 102.8208958  84.5433097  53.6378512
 102.7226013  79.9913939  61.1855337 102.0924673  80.6730220  61.4190734
 102.6162101  79.8797021  60.2408476  98.0170985  79.6585735  52.1121262
  97.2270039  79.9143264  51.6361372  98.5082233  80.4734073  52.2173302
  99.9685731  80.0230315  49.0704738  99.1716894  80.1349009  49.5888234
  99.7411323  80.3616967  48.2045629  96.3008688  79.9116226  54.5436252
  96.5516727  80.7963236  54.8093828  96.8368237  79.7320827  53.7711344
 102.0006756  74.2934705  63.5480589 101.6073701  73.7400904  64.2228233
 102.8172896  74.6045284  63.9387106  98.9668813  85.7318563  47.4594158
  99.4793334  86.5261814  47.6099723  99.6191526  85.0344854  47.3927760
 100.7763698  88.8484320  49.5416912 100.9530326  89.7702284  49.3537895
 101.5720532  88.5342739  49.9711291 100.0616055  80.8948952  59.4179075
  99.9469570  79.9934209  59.7186174  99.2060572  81.1412648  59.0663891
  96.9317730  84.0607218  48.2353729  97.7692952  84.4704226  48.0187437
  97.1095998  83.1206660  48.2053923 101.7933625  76.4219280  49.7596909
 102.3677377  76.1994461  49.0270102 102.3804607  76.4907975  50.5125510
 102.1203212  78.4523741  43.7792794 101.2840524  78.7898428  44.1002069
 101.9807982  78.3172721  42.8419931  96.9543901  81.3997933  48.9064462
  96.7568301  80.8067294  48.1815529  96.3990565  81.0950143  49.6240401
 102.8732985  79.9098099  48.7849434 102.0600850  80.2092270  49.1914627
 103.3691979  79.5153788  49.5023917 102.3647060  77.4816455  54.4010669
 103.0046439  77.3405214  53.7033633 101.5324590  77.1950968  54.0249271
  99.4490127  80.9261967  46.5905414  98.5187715  80.8646422  46.8075377
  99.5447599  80.4037920  45.7942056  99.3675676  77.4516780  49.1783656
  99.6282493  78.3662113  49.0692817 100.1892848  76.9841222  49.3280269
 100.8400601  78.8654537  56.3482481 101.5123655  78.6571899  55.6995130
 100.0130388  78.6676623  55.9087713 101.2428099  82.1397140  57.1084918
 101.1047897  81.4077379  57.7096457 102.1533022  82.0506040  56.8269106
 102.5839333  78.8382317  58.4164237 102.0476690  78.3873056  59.0685833
 101.9956042  78.9728226  57.6734701 101.9941592  78.2970968  40.9790701
 101.1171059  78.1759769  40.6152947 102.4699345  77.5057047  40.7269589
  93.5143732  83.0848128  51.0732208  94.2014772  82.7709858  50.4853223
  93.3591861  83.9889493  50.7999459  98.3178455  77.9738325  55.5017231
  98.2336643  77.3663994  54.7667641  97.4961161  78.4647343  55.5026728
  98.4994054  88.5943121  54.6245232  99.0847491  87.8486809  54.7573136
  98.3018892  88.9047078  55.5081896  93.0911709  81.1648722  53.3449675
  93.1295808  80.6312312  54.1386793  92.5852001  80.6383927  52.7260652
 100.4702471  76.0113262  56.8412217 100.5343797  76.8728093  56.4289615
 100.4069591  75.3987264  56.1084576  99.9454743  78.0836395  60.4885251
 100.5726782  77.7013472  61.1022776  99.0882662  77.8650597  60.8540944
  96.7220286  79.8912824  46.4203606  97.0173727  78.9823502  46.3670660
  95.8208322  79.8700563  46.0984609 100.2514533  77.9668820  52.4031155
  99.5301119  78.5804788  52.2638628 101.0407789  78.5026585  52.3247801
 103.0540847  75.3023247  58.6771807 103.5775248  75.5485543  59.4398116
 102.8353180  76.1343282  58.2574944  98.4508128  77.5726921  46.5442931
  98.1220834  76.6924300  46.3618037  98.8047498  77.5174590  47.4319321
 101.5649951  77.8599891  46.9118409 101.9046023  78.3885812  46.1897017
 102.0122071  78.1980297  47.6876976 102.4348442  80.0205375  52.6240779
 102.2893023  80.3345678  53.5165060 101.9573646  80.6390275  52.0711677
  96.9094104  82.5610719  55.5628440  96.3647572  83.3370527  55.6948714
  97.7873454  82.9081524  55.4047561  97.6960126  81.6880616  58.4558597
  96.9541862  81.8363251  59.0423227  97.3752871  81.9488881  57.5925346
  98.1416740  89.5746044  50.4868991  98.9674760  89.2749816  50.1067635
  97.7910792  88.8053667  50.9358780  96.3425345  87.4932371  51.4457925
  95.5057253  87.0654545  51.2641926  96.3148990  87.6864814  52.3828716
 103.1822801  77.4054301  62.1499171 103.2310956  78.2816423  61.7676941
 103.7245315  76.8631694  61.5770814 102.6711780  87.4776436  46.0325126
 102.8199900  88.1611900  45.3791798 103.4778223  87.4581526  46.5474581
 100.4264413  83.5041614  47.0386195 100.1810455  82.6003944  47.2366405
 100.5960328  83.5058764  46.0965673  99.6960061  79.2369971  44.5372356
  99.0029305  79.3114326  43.8812392  99.4511812  78.4730315  45.0593873
  95.6574842  80.5541719  51.2306857  95.3377626  79.7007027  50.9381231
  95.1108270  80.7690297  51.9864824  99.4354749  83.2704160  54.9476364
  99.6540759  84.2021268  54.9664397  99.8480523  82.9112134  55.7331167
  95.5263102  84.1744630  53.1999979  94.8326573  83.7598583  52.6869933
  96.2736093  84.2165167  52.6033398  97.4399844  84.1062884  51.0765994
  97.4170532  84.2050571  50.1247877  97.7500481  84.9528035  51.3983160
 100.0987222  86.1639039  55.1912608 101.0530476  86.1322982  55.1242540
  99.8999746  85.7029663  56.0062834 100.6886604  84.7340155  57.7583406
 101.5079493  85.2284234  57.7818243 100.9623412  83.8172123  57.7300973
  98.4537451  91.7058659  52.2082806  98.3191919  90.9459060  51.6420804
  98.0369513  92.4299559  51.7411595  95.9421518  79.0678289  58.4575603
  96.5880382  78.5577243  58.9462828  95.7338669  79.8046971  59.0319028
 100.2819009  76.2145906  62.5550617 101.1450471  75.8582711  62.7653942
  99.7084420  75.8759801  63.2426021  46.6819106  -4.0351099  39.0354202
  46.9215704  -3.4032575  39.7133221  45.8388302  -4.3863059  39.3219561
  56.1439569   1.5064393  38.8500961  56.9360861   1.1655218  38.4347260
  56.3836219   1.6159368  39.7703114  64.1774696   3.6784169  31.3231205
  63.5262676   4.2638249  30.9365219  64.9719059   4.2090364  31.3826243
  58.1030323   0.7673306  31.7218340  58.8761199   0.2202293  31.5831215
  58.4555722   1.6317555  31.9332801  59.9415365   2.0949688  44.9285239
  59.6505231   2.9995319  44.8131905  60.5772350   2.1366216  45.6429308
  59.8826030   8.5455424  34.8906000  59.8050060   9.4963249  34.9694481
  59.2787674   8.2001297  35.5480927  58.8725830   0.5144964  39.6639633
  59.4427187   0.9432232  39.0257117  59.4633942   0.2327548  40.3623819
  62.4416382   2.2369470  43.7432560  62.5060814   2.6989877  44.5790731
  61.7327306   1.6066835  43.8714869  62.1564399   3.9037577  33.6111540
  62.0210074   4.7489113  34.0396388  62.6974212   4.1056855  32.8477474
  55.6093797   1.4213015  34.1839465  56.1218317   2.2156266  34.3345030
  56.2616510   0.7239306  34.1173066  57.4188681   4.5378772  36.2662218
  57.5955310   5.4596736  36.0783202  58.2145515   4.2237191  36.6956598
  63.7832876   4.5261144  47.7411882  63.3396730   3.7397522  47.4232787
  64.4450089   4.7140294  47.0755773  58.5419997   6.0556945  42.2672561
  59.0927422   5.9274009  41.4949554  57.7031473   6.3551834  41.9167453
  65.8814114   4.8063944  45.7693283  65.8632589   5.6272825  45.2773552
  66.8034034   4.6818019  45.9943424  62.3387168   2.3208073  46.6116792
  62.8715505   1.5596361  46.3816100  61.8101249   2.0281725  47.3540946
  53.5742713  -0.2498330  34.9599036  54.4117935   0.1598678  34.7432743
  53.7520981  -1.1898888  34.9299229  64.7560560   7.9771783  30.0467263
  64.0822258   8.2803480  30.6552221  65.1426382   8.7800863  29.6972720
  66.7032921   4.8169957  36.3535553  66.9955895   5.3775014  35.6347918
  67.2131541   5.1098518  37.1088712  61.6666546   5.5950308  37.4429006
  61.6242725   5.8211154  36.5137538  62.5829245   5.3613683  37.5914807
  59.7832347   2.4713337  37.2390968  60.5772945   1.9763657  37.0373543
  59.0724039   1.9431200  36.8758674  64.6027191   4.8531433  41.5903336
  64.6564214   5.4222369  42.3581052  63.7341973   5.0233318  41.2257373
  62.3603623   3.0442359  40.9188806  62.2214709   2.6761143  41.7914744
  61.5718219   3.5589998  40.7472763  62.9551775   8.1451455  32.2614342
  63.1303530   7.6739499  33.0759965  62.2684563   8.7717222  32.4895603
  63.9108838   2.4223962  38.3077643  63.5758671   2.3824732  39.2035293
  63.4112784   1.7568678  37.8348054  68.5022161   4.4778904  46.2420483
  68.4434707   3.7938125  45.5751066  68.9041680   5.2197894  45.7901109
  57.5212860  11.2940818  39.0354202  57.7609458  11.9259342  39.7133221
  56.6782057  10.9428858  39.3219561  50.1568716  -1.2257420  37.7977514
  50.8439756  -1.5395690  37.2098530  50.0016844  -0.3216055  37.5244766
  62.0340722   7.1019941  41.4395706  61.9610893   7.9074912  41.9515011
  61.5918115   7.3011907  40.6143728  61.8230502   6.3391711  34.9498528
  61.0398023   6.8813391  35.0436752  62.5223247   6.8565690  35.3492769
  64.4939405   7.0006775  43.5953865  65.2067378   7.6354240  43.5229766
  64.0029434   7.0970641  42.7793867  59.5451319   4.7501218  44.4159436
  60.2460779   5.3837701  44.5688830  59.0746434   5.0915950  43.6555075
  67.6705715   3.0919168  32.7007343  67.9465559   2.9775763  33.6101217
  66.8010214   2.6936653  32.6619516  64.3059779   7.3405519  36.3440156
  64.4882173   6.5227175  36.8067909  65.1292765   7.5573211  35.9065046
  64.6401944   6.2673704  33.6055205  65.1689711   5.7566159  32.9925367
  64.9030164   5.9516234  34.4700738  55.1419037   4.2837573  41.3490538
  55.7272474   3.5381261  41.4818443  54.9443876   4.5941530  42.2327202
  57.9957692   7.3188821  36.3652981  57.3268068   7.8034948  35.8817021
  57.8570562   7.5658041  37.2796359  62.1362961   9.3532564  42.9635639
  62.6881269   9.5164186  43.7284724  62.4769154   9.9437002  42.2915664
  66.9873835   4.1793822  48.8184294  67.5313739   4.7923780  48.3239248
  66.4060680   4.7373400  49.3351307  65.2731348   7.3014540  39.9499321
  65.1482488   6.5004280  39.4410267  65.9310439   7.7960733  39.4613291
  67.3366257   5.1023560  41.5778871  66.3896592   4.9828911  41.5057198
  67.6849030   4.2146058  41.6605133  64.3412690   4.8976276  37.7783224
  64.1937652   3.9692983  37.9590794  65.1666183   4.9196367  37.2940299
  67.9446812   5.7204835  38.8648096  68.8693359   5.5147696  38.7272547
  67.7762115   5.4721236  39.7737438  67.7342128   6.2390502  34.2210188
  67.9079005   5.6736925  33.4684040  68.2271019   7.0391397  34.0389678
  53.5519088  -1.7494829  42.2873747  53.0072556  -0.9735021  42.4194021
  54.4298438  -1.4024024  42.1292868  68.7217300   5.5557267  31.3207086
  69.4168205   6.1763959  31.5394401  69.0640451   4.7052618  31.5959464
  62.2828772   6.9191046  44.9784293  62.5915899   6.6740193  45.8506993
  63.0804254   7.1237684  44.4903164  62.3049384   9.0728955  37.2089670
  61.8654375   8.5805334  37.9022527  63.0557501   8.5301923  36.9681745
  54.7841723   5.2640496  37.2114298  55.6099743   4.9644268  36.8312942
  54.4335775   4.4948119  37.6604087  59.7523256   4.6166964  39.2811972
  59.1303266   3.9537669  38.9814200  60.4228123   4.6428096  38.5985619
  52.9850328   3.1826823  38.1703232  52.1482237   2.7548997  37.9887233
  52.9573974   3.3759266  39.1074023  59.3136763   3.1670888  32.7570432
  59.4624884   3.8506352  32.1037105  60.1203207   3.1475978  33.2719888
  62.8132169   5.6619018  30.2282180  62.2406136   6.2809205  29.7752652
  63.3864963   6.2118380  30.7622102  66.0329429   5.9456168  31.3590762
  66.9660102   5.8801730  31.5623637  65.9452641   6.7812435  30.9005295
  68.6617445   5.2622039  28.3194710  68.5831077   4.9281902  29.2130467
  69.4827112   5.7543807  28.3186182  52.1688085  -0.1360918  39.9245285
  51.4751556  -0.5506965  39.4115240  52.9161076  -0.0940381  39.3278704
  54.0824827  -0.2042664  37.8011300  54.0595516  -0.1054977  36.8493183
  54.3925464   0.6422487  38.1228466  56.7412205   1.8533491  41.9157915
  57.6955459   1.8217433  41.8487846  56.5424729   1.3924115  42.7308141
  57.3311587   0.4234607  44.4828712  58.1504476   0.9178686  44.5063550
  57.6048395  -0.4933425  44.4546280  55.0962434   7.3953111  38.9328113
  54.9616902   6.6353511  38.3666111  54.6794496   8.1194010  38.4656901
  66.2321397   2.5790034  27.9404688  66.9357247   2.7840037  28.5562343
  65.5084046   3.1466796  28.2053771  58.2531560   8.2922428  39.1446555
  58.1363944   9.2367860  39.0425245  57.4324006   7.9895989  39.5332354
  59.2786074   8.9450689  42.3602484  60.1813321   8.9774300  42.6768979
  59.0523444   8.0151140  42.3748819  61.0339676   7.6981676  39.0212562
  60.0835307   7.6983538  38.9076935  61.3372162   6.9514411  38.5048597
  76.7692370  13.5342214  40.0858325  77.4070780  13.4148962  39.3821665
  76.6513212  14.4823058  40.1446277  73.5782076  13.4869643  40.0219849
  73.2400587  13.3710707  39.1340384  74.4471844  13.0860808  40.0020855
  69.4368892  15.3405119  36.0116740  68.8733757  15.2495056  35.2433028
  69.3221287  14.5205023  36.4919233  74.0601859  14.6404494  45.9806055
  74.0490500  14.2457293  45.1086559  74.2222498  13.9070567  46.5739826
  66.9833323  16.8356311  38.8500961  67.7754615  16.4947135  38.4347260
  67.2229974  16.9451286  39.7703114  75.0168450  19.0076087  31.3231205
  74.3656430  19.5930167  30.9365219  75.8112813  19.5382282  31.3826243
  68.9424077  16.0965224  31.7218340  69.7154953  15.5494211  31.5831215
  69.2949476  16.9609473  31.9332801  70.7809120  17.4241606  44.9285239
  70.4898986  18.3287237  44.8131905  71.4166104  17.4658134  45.6429308
  71.7065327  14.8018455  41.5186598  72.3028899  14.5774477  40.8043561
  71.7640298  14.0603200  42.1212046  71.2790355  12.2557890  29.3536789
  71.5315876  11.7339411  28.5920252  70.3414914  12.0924035  29.4563473
  76.3233638  11.2593668  37.1611533  77.1096727  10.8413091  36.8101950
  76.5872342  12.1639760  37.3293181  76.4943715  16.6966519  31.8600189
  75.8589548  16.7701145  32.5721094  76.1641122  17.2860117  31.1819269
  81.7242065  11.1968901  38.0644511  82.4567237  10.6268118  38.2982341
  80.9681421  10.8090502  38.5051017  70.9986644  14.1585996  31.5561164
  70.8822902  13.4830899  32.2242249  71.1088904  13.6718370  30.7393317
  73.3418185  13.6196143  35.2607854  72.9776392  13.0926764  35.9720775
  74.1985301  13.2294612  35.0874339  72.9823672   8.6486043  30.2569202
  73.1498074   9.5166279  30.6239673  72.7920841   8.8113324  29.3330491
  75.7399005  17.1103022  41.9235033  75.4399728  18.0128060  41.8150840
  75.3950065  16.8435205  42.7756185  69.1911487  13.5616818  37.9571737
  68.2661983  13.4293033  38.1649429  69.4395900  14.3411038  38.4541679
  79.1396149   9.6285562  39.6032470  78.2313026   9.5600970  39.3091231
  79.0883745  10.1057507  40.4314295  72.9612893  11.1043700  31.2415869
  72.8412518  11.5500751  32.0801349  72.2665481  11.4529018  30.6829407
  66.5520298  13.2050092  38.7915526  66.6812679  13.4584571  39.7054938
  65.8717749  13.7977800  38.4720181  70.7219785  23.8747342  34.8906000
  70.6443815  24.8255167  34.9694481  70.1181428  23.5293214  35.5480927
  73.2137015  11.0475207  47.5467367  72.4370349  11.6069127  47.5370232
  73.8527578  11.5331990  48.0682237  81.0057795   7.8302000  41.3810344
  80.3632175   8.1234533  40.7350138  80.5012724   7.7154921  42.1863540
  78.6597959  11.5765173  32.0696203  79.5715815  11.8092560  31.8943901
  78.1507606  12.1602218  31.5071282  71.4683387  13.8560661  47.1085334
  72.2098071  14.3945705  46.8320158  70.7620372  14.4826949  47.2656886
  76.9438727  15.9989801  45.7057496  77.3522083  15.5572212  44.9612128
  76.2215988  15.4242429  45.9591689  73.2969797  10.9362408  43.0791053
  74.1430992  11.3601822  43.2225702  73.2368434  10.2796032  43.7729616
  77.2667541  16.5590992  39.4609784  76.6376404  16.7236706  38.7585852
  76.8793203  16.9732601  40.2320749  81.1456773  17.4945430  36.8154148
  80.4607811  17.8744331  36.2651182  81.2300622  18.1040756  37.5486096
  76.4469242   8.5966776  44.7372226  76.2030174   9.3508837  44.2006502
  76.7229172   8.9752124  45.5719473  78.4007705  15.1405389  43.4149492
  78.6124600  15.7837149  42.7383873  78.3537453  14.3067705  42.9471422
  76.0033934   7.7523209  40.3186064  75.1418413   8.0504463  40.6102801
  76.0296368   7.9693608  39.3867097  72.8195503  16.2965400  36.7259870
  73.2833849  16.5753103  35.9364492  72.5552301  15.3948844  36.5432960
  69.7119584  15.8436881  39.6639633  70.2820941  16.2724150  39.0257117
  70.3027696  15.5619466  40.3623819  71.7564389  12.4188552  33.5349435
  72.4588432  12.8709596  34.0023361  71.4245018  11.7772371  34.1629328
  70.2044751  11.0100309  47.9100644  69.5743411  11.6916590  48.1436041
  70.0980839  10.8983390  46.9653782  65.4989723  10.6772105  38.8366568
  64.7088777  10.9329633  38.3606679  65.9900970  11.4920443  38.9418609
  79.5153533  18.0177344  41.5871849  80.3370976  17.6157531  41.3054531
  79.5115936  17.9145578  42.5387965  67.4504468  11.0416684  35.7950045
  66.6535632  11.1535378  36.3133541  67.2230061  11.3803336  34.9290936
  73.2810136  17.5661387  43.7432560  73.3454569  18.0281795  44.5790731
  72.5721060  16.9358752  43.8714869  63.7827426  10.9302595  41.2681559
  64.0335465  11.8149605  41.5339135  64.3186974  10.7507197  40.4956651
  87.6059526  14.3616093  37.9356821  86.8523234  13.7923491  37.7800825
  87.7407067  14.3278757  38.8827455  72.9958154  19.2329495  33.6111540
  72.8603829  20.0781031  34.0396388  73.5367966  19.4348773  32.8477474
  69.4825493   5.3121075  50.2725895  69.0892439   4.7587273  50.9473539
  70.2991634   5.6231653  50.6632413  66.4487551  16.7504933  34.1839465
  66.9612072  17.5448183  34.3345030  67.1010264  16.0531223  34.1173066
  68.2582436  19.8670689  36.2662218  68.4349064  20.7888654  36.0783202
  69.0539269  19.5529108  36.6956598  72.3993454   6.7278954  47.8646152
  73.1403168   7.3286107  47.7850614  72.6311377   5.9856592  47.3064194
  67.5434792  11.9135321  46.1424381  67.4288308  11.0120578  46.4431480
  66.6879310  12.1599018  45.7909198  74.6226630  19.8553061  47.7411882
  74.1790484  19.0689440  47.4232787  75.2843844  20.0432212  47.0755773
  69.3813751  21.3848863  42.2672561  69.9321176  21.2565926  41.4949554
  68.5425227  21.6843752  41.9167453  76.7207868  20.1355861  45.7693283
  76.7026344  20.9564742  45.2773552  77.6427788  20.0109937  45.9943424
  73.1780922  17.6499991  46.6116792  73.7109259  16.8888279  46.3816100
  72.6495003  17.3573643  47.3540946  64.4136468  15.0793587  34.9599036
  65.2511690  15.4890596  34.7432743  64.5914736  14.1393029  34.9299229
  76.3100900  12.7468668  30.6482869  75.7947524  13.5173273  30.8871256
  76.0378209  12.0733804  31.2715930  73.8948011   7.5918369  35.7068107
  73.0389607   7.2025219  35.5273746  74.3074963   7.6710329  34.8467892
  71.6690044   5.2103442  39.1125848  72.5343040   5.0146250  38.7531738
  71.7367553   4.9813793  40.0395205  81.2835174  15.5001023  32.5836042
  80.5064617  15.1612182  32.1391204  81.9626655  15.5053646  31.9091007
  76.0987203  10.6195760  32.4742650  75.7937339  10.9341909  33.3252793
  77.0517645  10.6977180  32.5169983  74.5433635  16.7785983  34.1235604
  74.0154997  16.0438743  33.8108841  74.0421138  17.5560660  33.8775572
  79.5226481  14.9735004  39.2402650  78.8650156  15.6634265  39.3282779
  80.3266880  15.3631436  39.5836636  69.2752363   7.4405650  36.4842215
  69.8496115   7.2180831  35.7515408  69.8623345   7.5094344  37.2370817
  78.3331940  13.3279376  37.2906592  78.8463822  13.9609368  37.7928301
  78.9833164  12.7280572  36.9249952  69.6021950   9.4710111  30.5038100
  68.7659262   9.8084797  30.8247375  69.4626719   9.3359090  29.5665237
  72.6886235  14.5966194  27.1270577  71.7813297  14.3655447  27.3261726
  73.1857267  13.8003813  27.3144558  75.5954314  23.3063701  30.0467263
  74.9216013  23.6095397  30.6552221  75.9820136  24.1092781  29.6972720
  74.8112771  10.8028832  39.5364932  73.8935332  11.0243779  39.3786620
  75.2272914  10.8775142  38.6776640  75.5947819  12.2020248  34.6667613
  76.3419637  12.7141645  34.3574735  75.8639408  11.8804300  35.5272006
  73.8674469  14.6978788  31.6494567  72.9585688  14.4137821  31.7467037
  73.8969553  15.1177867  30.7897874  79.0993736  18.3085378  35.4185734
  78.6456063  17.4676288  35.4750925  78.4687703  18.9446776  35.7560515
  78.0426656   9.2377364  36.6486402  77.3049412   8.7254750  36.9796644
  78.2953429   8.7977746  35.8369679  77.5426675  20.1461875  36.3535553
  77.8349650  20.7066932  35.6347918  78.0525296  20.4390436  37.1088712
  64.4362639  12.4184303  35.6309769  64.2387039  11.8253663  34.9060836
  63.8809303  12.1136513  36.3485708  72.4159363  12.3107409  37.7504362
  72.4707973  11.3581245  37.6746839  71.6050565  12.4666848  38.2345661
  73.5650557  16.2387532  28.9882645  73.1269986  15.5223391  28.5288283
  74.3060997  16.4663647  28.4267737  70.3551723  10.9284469  35.5094741
  69.5419588  11.2278639  35.9159933  70.8510717  10.5340158  36.2269223
  72.5060301  20.9242226  37.4429006  72.4636479  21.1503072  36.5137538
  73.4222999  20.6905600  37.5914807  75.9525934  11.3926293  44.3409635
  76.3075322  11.6197766  45.2004101  76.5998066  11.7244670  43.7186890
  81.6823671  14.5144729  35.0458964  81.5441570  14.7046325  34.1180153
  81.3259890  15.2764112  35.5027015  69.8465797   8.5002824  41.1255976
  70.4865177   8.3591583  40.4278939  69.0143328   8.2137338  40.7494578
  81.7093051  16.5821256  40.0570235  82.1429558  16.4896545  40.9053289
  82.4224632  16.5578757  39.4190251  70.6226101  17.8005255  37.2390968
  71.4166700  17.3055575  37.0373543  69.9117794  17.2723118  36.8758674
  75.4420946  20.1823350  41.5903336  75.4957968  20.7514287  42.3581052
  74.5735727  20.3525235  41.2257373  66.9308865  11.9448336  33.3150721
  66.0006453  11.8832792  33.5320683  67.0266337  11.4224289  32.5187362
  66.8494414   8.4703149  35.9028963  67.1101231   9.3848483  35.7938123
  67.6711586   8.0027592  36.0525576  68.3219339   9.8840906  43.0727787
  68.9942393   9.6758269  42.4240436  67.4949126   9.6862992  42.6333020
  82.5708600  16.6244957  42.5903121  82.7644491  17.5290767  42.8362396
  82.4709219  16.1652376  43.4241706  74.2244911   6.5102847  45.0893448
  73.5772826   7.2092797  44.9957925  74.9945927   6.9438991  45.4569696
  77.6323709  16.7751700  48.1644001  77.4809216  16.5462251  47.2474085
  77.6228389  17.7322301  48.1775346  74.4009046  14.3483612  43.1490268
  75.3301106  14.4994772  42.9759235  73.9800076  14.4367633  42.2938914
  73.1997377  18.3734277  40.9188806  73.0608463  18.0053061  41.7914744
  72.4111974  18.8881916  40.7472763  73.7945529  23.4743373  32.2614342
  73.9697285  23.0031416  33.0759965  73.1078317  24.1009139  32.4895603
  74.7502592  17.7515879  38.3077643  74.4152425  17.7116649  39.2035293
  74.2506538  17.0860595  37.8348054  68.7246836  13.1583509  43.8330224
  68.5866634  12.4263748  44.4341764  69.6351760  13.0692410  43.5514412
  77.6861784  15.0971914  28.5814703  77.0690955  14.3718742  28.4847756
  77.2178273  15.8581274  28.2381777  71.3529137  12.8703469  43.3213904
  72.0628756  12.2296661  43.2800523  71.3098445  13.1216364  44.2440085
  79.3415916  19.8070822  46.2420483  79.2828462  19.1230042  45.5751066
  79.7435434  20.5489812  45.7901109  70.0658071   9.8568687  45.1409544
  69.5295428   9.4059425  45.7931140  69.4774780   9.9914595  44.3980008
  68.3606615  26.6232736  39.0354202  68.6003213  27.2551260  39.7133221
  67.5175811  26.2720776  39.3219561  69.4760330   9.3157338  27.7036007
  68.5989796   9.1946139  27.3398254  69.9518083   8.5243416  27.4514896
  79.3433323  17.7710406  44.4734463  78.4560102  17.4336328  44.5960862
  79.9131874  17.0393437  44.7103228  60.9962470  14.1034498  37.7977514
  61.6833510  13.7896228  37.2098530  60.8410599  15.0075862  37.5244766
  65.7997192   8.9924694  42.2262538  65.7155381   8.3850364  41.4912948
  64.9779899   9.4833713  42.2272034  72.8734476  22.4311858  41.4395706
  72.8004648  23.2366830  41.9515011  72.4311870  22.6303824  40.6143728
  72.6624256  21.6683628  34.9498528  71.8791778  22.2105309  35.0436752
  73.3617001  22.1857608  35.3492769  75.9720906   7.4778258  37.5932733
  76.4689606   6.7248220  37.2733803  75.2007888   7.5142575  37.0275942
  83.8250664  13.1818623  39.2351025  83.8140540  14.0643339  38.8644958
  82.9568043  12.8290174  39.0405562  75.3333160  22.3298692  43.5953865
  76.0461132  22.9646157  43.5229766  74.8423189  22.4262558  42.7793867
  77.0550687  16.2349945  35.1671157  76.1206966  16.3551408  34.9975861
  77.2327355  15.3322412  34.9031166  72.5555875   9.6195641  37.3204418
  72.1853662   9.0666681  38.0085323  73.0514967   9.0153774  36.7679418
  80.4423238  12.0767264  35.7021191  80.9083690  12.9095256  35.6281493
  80.8930739  11.6112246  36.4066449  70.3845073  20.0793136  44.4159436
  71.0854533  20.7129619  44.5688830  69.9140188  20.4207867  43.6555075
  78.5099469  18.4211086  32.7007343  78.7859313  18.3067680  33.6101217
  77.6403968  18.0228571  32.6619516  78.1846359  12.6337743  42.2411986
  77.5317810  12.8813651  41.5864439  78.5626739  11.8201882  41.9074463
  75.1453533  22.6697436  36.3440156  75.3275928  21.8519092  36.8067909
  75.9686519  22.8865129  35.9065046  75.4795699  21.5965622  33.6055205
  76.0083465  21.0858076  32.9925367  75.7423918  21.2808152  34.4700738
  74.2333932  13.3757554  48.7278023  73.5574570  13.2751684  49.3980398
  75.0561566  13.2196768  49.1914020  65.9812792  19.6129491  41.3490538
  66.5666228  18.8673179  41.4818443  65.7837630  19.9233448  42.2327202
  68.8351447  22.6480738  36.3652981  68.1661822  23.1326866  35.8817021
  68.6964316  22.8949959  37.2796359  60.5730446  12.1835091  40.0694982
  60.6114546  11.6498682  40.8632100  60.0670739  11.6570297  39.4505959
  72.9756715  24.6824482  42.9635639  73.5275023  24.8456103  43.7284724
  73.3162909  25.2728920  42.2915664  67.9521209   7.0299632  43.5657524
  68.0162535   7.8914463  43.1534922  67.8888329   6.4173633  42.8329882
  67.4273481   9.1022764  47.2130558  68.0545520   8.7199841  47.8268082
  66.5701400   8.8836966  47.5786251  77.8267590  19.5085739  48.8184294
  78.3707494  20.1215698  48.3239248  77.2454435  20.0665318  49.3351307
  64.2039024  10.9099193  33.1448913  64.4992465  10.0009872  33.0915967
  63.3027060  10.8886933  32.8229915  76.1125103  22.6306457  39.9499321
  75.9876242  21.8296197  39.4410267  76.7704194  23.1252651  39.4613291
  67.7333271   8.9855190  39.1276462  67.0119857   9.5991158  38.9883935
  68.5226527   9.5212955  39.0493107  78.1760011  20.4315477  41.5778871
  77.2290347  20.3120829  41.5057198  78.5242784  19.5437975  41.6605133
  70.5359584   6.3209616  45.4017113  71.0593986   6.5671913  46.1643423
  70.3171918   7.1529651  44.9820251  65.9326865   8.5913291  33.2688238
  65.6039572   7.7110670  33.0863344  66.2866236   8.5360960  34.1564627
  75.1806444  20.2268194  37.7783224  75.0331407  19.2984901  37.9590794
  76.0059938  20.2488284  37.2940299  69.0468689   8.8786261  33.6363716
  69.3864761   9.4072182  32.9142324  69.4940809   9.2166667  34.4122282
  78.7840566  21.0496752  38.8648096  79.7087114  20.8439614  38.7272547
  78.6155870  20.8013154  39.7737438  71.7412129   7.2623311  43.0866784
  71.4008950   6.4631125  43.4887464  71.0351136   7.5625022  42.5143617
  71.0336836   7.3760882  31.8357009  71.7545198   7.7542135  31.3320725
  70.4102140   8.0949759  31.9391986  75.1767959   8.0806031  32.7715341
  75.3931573   8.9630669  32.4704169  74.6962026   7.6892245  32.0420983
  69.9167180  11.0391745  39.3486085  69.7711761  11.3532048  40.2410367
  69.4392384  11.6576645  38.7956984  71.7763563   8.0294293  39.3966975
  71.7625132   7.1335386  39.0599273  72.4935991   8.0364956  40.0305261
  73.6289694   8.4631633  41.4420102  73.3707471   9.3848703  41.4404433
  73.0974734   8.0662067  42.1320567  78.5735882  21.5682420  34.2210188
  78.7472760  21.0028842  33.4684040  79.0664774  22.3683315  34.0389678
  64.3912842  13.5797089  42.2873747  63.8466310  14.3556897  42.4194021
  65.2692192  13.9267893  42.1292868  71.1800459   6.9108673  34.6654545
  71.3016370   5.9825319  34.8645433  70.8902501   6.9247359  33.7532861
  84.4275274  14.3318843  35.8400488  84.8706420  13.5826168  35.4419611
  83.5501784  14.3228979  35.4574220  79.5611055  20.8849184  31.3207086
  80.2561959  21.5055877  31.5394401  79.9034205  20.0344535  31.5959464
  65.1778864  12.7066985  45.1803903  64.4360600  12.8549621  45.7668534
  64.8571608  12.9675251  44.3170653  81.4602478  18.3348890  32.8494417
  81.9853802  18.6736163  32.1243737  81.3724831  17.3995905  32.6657551
  73.1222527  22.2482963  44.9784293  73.4309653  22.0032110  45.8506993
  73.9198009  22.4529602  44.4903164  73.1443139  24.4020873  37.2089670
  72.7048129  23.9097252  37.9022527  73.8951256  23.8593841  36.9681745
  65.6235478  20.5932414  37.2114298  66.4493498  20.2936186  36.8312942
  65.2729530  19.8240036  37.6604087  70.5917011  19.9458882  39.2811972
  69.9697020  19.2829587  38.9814200  71.2621878  19.9720014  38.5985619
  63.8244083  18.5118740  38.1703232  62.9875991  18.0840915  37.9887233
  63.7967728  18.7051184  39.1074023  70.6641538   8.4240670  48.8744478
  70.7129694   9.3002793  48.4922247  71.2064053   7.8818063  48.3016121
  81.1496384  18.9681793  48.1545615  80.3591928  18.9505932  47.6150114
  80.9129739  19.5070087  48.9094651  81.2694259  15.8174260  45.4678343
  81.3192264  15.6524267  46.4093866  81.1608182  14.9501519  45.0776224
  70.1530518  18.4962805  32.7570432  70.3018638  19.1798270  32.1037105
  70.9596961  18.4767896  33.2719888  78.5598022  11.8005188  46.7837650
  79.4607884  11.6611653  46.4921648  78.6345996  11.9659643  47.7235827
  72.8940827   9.1772043  45.6290836  72.0244136   9.4705609  45.3573425
  73.1300307   9.7612488  46.3498100  82.7712456  18.2371201  45.7120365
  82.4797264  18.6001182  46.5483826  82.1584587  17.5238210  45.5333697
  83.9708138  15.8024081  38.2322935  84.8055030  16.2413885  38.3960495
  84.1067267  15.3262734  37.4131181  81.0199644  13.3603816  44.1800423
  81.4953766  13.5531462  43.3719274  80.0965210  13.4163002  43.9343807
  67.9083151  14.5227983  33.7631501  67.6629193  13.6190313  33.9611711
  68.0779065  14.5245134  32.8210979  67.1778798  10.2556341  31.2617663
  66.4848043  10.3300696  30.6057699  66.9330550   9.4916684  31.7839180
  73.6525923  20.9910936  30.2282180  73.0799890  21.6101123  29.7752652
  74.2258717  21.5410298  30.7622102  79.7201313  10.2369576  42.4128728
  80.6718736  10.3367674  42.4340953  79.5504764   9.4447845  42.9226813
  77.7415693   7.3225159  42.5988129  77.1465625   7.6030172  41.9034618
  77.4565389   7.8119060  43.3704870  76.8723183  21.2748086  31.3590762
  77.8053856  21.2093648  31.5623637  76.7846396  22.1104353  30.9005295
  79.5011200  20.5913956  28.3194710  79.4224831  20.2573820  29.2130467
  80.3220867  21.0835724  28.3186182  82.1989391  13.4575696  41.5271028
  82.1665711  12.5191696  41.7130712  82.8090015  13.5359732  40.7936853
  74.0372722  12.3271749  27.5698232  74.9831827  12.1977957  27.6386650
  73.6586967  11.5886411  28.0467660  82.3483879  10.2486739  41.5729311
  81.8322928   9.4645196  41.3859240  83.2323828   9.9205456  41.7375831
  88.0165941  14.5191703  40.6677065  88.7469329  14.2576991  41.2284768
  87.4072886  13.7820424  40.7079133  86.0981238  12.6599565  41.2651516
  85.3714402  12.5255530  40.6568008  85.6828525  12.9676394  42.0708234
  73.9211414  16.3789495  49.0298889  74.8414424  16.5568094  49.2238936
  73.8860997  15.4345540  48.8778588  72.2215639  10.2521725  27.5053117
  71.3147094   9.9554838  27.5815831  72.4991620   9.9551543  26.6387404
  63.1393579  11.5728088  37.9552164  62.8196364  10.7193397  37.6626538
  62.5927008  11.7876667  38.7110131  66.9173487  14.2890529  41.6721670
  67.1359497  15.2207637  41.6909704  67.3299261  13.9298504  42.4576474
  71.7901352   9.8623735  51.0624419  71.6898079  10.8118092  50.9936510
  71.5722894   9.5341974  50.1900489  70.9914424   7.1108660  27.6465097
  71.8533588   7.4363559  27.9060914  71.1764768   6.3240156  27.1338162
  63.0081839  15.1931000  39.9245285  62.3145311  14.7784953  39.4115240
  63.7554830  15.2351536  39.3278704  71.6532622  13.2920874  49.8789481
  71.1699704  14.0921234  50.0853370  71.7393561  13.3028819  48.9256925
  64.9218582  15.1249254  37.8011300  64.8989270  15.2236941  36.8493183
  65.2319218  15.9714405  38.1228466  67.5805960  17.1825409  41.9157915
  68.5349213  17.1509351  41.8487846  67.3818483  16.7216033  42.7308141
  68.1705342  15.7526525  44.4828712  68.9898231  16.2470603  44.5063550
  68.4442150  14.8358493  44.4546280  77.9271938   8.1437277  33.8456668
  77.0397793   8.4286928  33.6276863  78.3425927   7.9831041  32.9983945
  81.2786474   8.1683798  37.5611007  82.0546864   8.6580251  37.8335624
  80.5534608   8.5941852  38.0182877  65.9356189  22.7245028  38.9328113
  65.8010656  21.9645429  38.3666111  65.5188251  23.4485928  38.4656901
  77.0715152  17.9081952  27.9404688  77.7751002  18.1131954  28.5562343
  76.3477800  18.4758714  28.2053771  77.9012962  13.6591813  34.0606958
  77.8448163  14.1160364  33.2214590  78.4541304  12.8982498  33.8829801
  81.7117768   9.4481545  34.8857078  81.4554702   9.0478181  35.7165285
  81.0870636  10.1625339  34.7607217  86.0230106  12.1877618  37.3928369
  85.4629664  12.2570807  38.1659931  85.4173609  12.0118603  36.6727865
  69.0925314  23.6214345  39.1446555  68.9757699  24.5659778  39.0425245
  68.2717761  23.3187907  39.5332354  78.9801849  18.3464481  29.9903148
  79.8147453  17.9145679  29.8080623  78.8186192  18.1746495  30.9180042
  78.6347741  14.8496594  31.3559487  78.5796545  14.6840866  30.4147931
  78.0093796  15.5572627  31.5121677  63.4240256  10.0864659  45.1820909
  64.0699120   9.5763613  45.6708135  63.2157407  10.8233340  45.7564335
  75.9493648  17.1545506  50.6813050  76.8184808  17.3286158  50.3199685
  75.4700400  17.9739923  50.5588779  70.1179829  24.2742607  42.3602484
  71.0207075  24.3066217  42.6768979  69.8917199  23.3443058  42.3748819
  71.8733431  23.0273594  39.0212562  70.9229062  23.0275455  38.9076935
  72.1765917  22.2806328  38.5048597  67.7637747   7.2332276  49.2795924
  68.6269209   6.8769081  49.4899248  67.1903158   6.8946171  49.9671328
  87.6086124  28.8634132  40.0858325  88.2464534  28.7440879  39.3821665
  87.4906967  29.8114976  40.1446277  84.4175830  28.8161560  40.0219849
  84.0794342  28.7002625  39.1340384  85.2865599  28.4152725  40.0020855
  80.2762646  30.6697037  36.0116740  79.7127511  30.5786974  35.2433028
  80.1615041  29.8496941  36.4919233  84.8995613  29.9696412  45.9806055
  84.8884254  29.5749210  45.1086559  85.0616253  29.2362485  46.5739826
  77.8227078  32.1648228  38.8500961  78.6148370  31.8239053  38.4347260
  78.0623728  32.2743203  39.7703114  85.8562205  34.3368004  31.3231205
  85.2050185  34.9222085  30.9365219  86.6506568  34.8674199  31.3826243
  79.7817832  31.4257141  31.7218340  80.5548708  30.8786129  31.5831215
  80.1343231  32.2901391  31.9332801  81.6202874  32.7533524  44.9285239
  81.3292740  33.6579155  44.8131905  82.2559859  32.7950051  45.6429308
  82.5459081  30.1310372  41.5186598  83.1422654  29.9066395  40.8043561
  82.6034053  29.3895118  42.1212046  82.1184110  27.5849808  29.3536789
  82.3709630  27.0631329  28.5920252  81.1808669  27.4215953  29.4563473
  87.1627393  26.5885586  37.1611533  87.9490482  26.1705009  36.8101950
  87.4266097  27.4931678  37.3293181  87.3337470  32.0258436  31.8600189
  86.6983303  32.0993063  32.5721094  87.0034876  32.6152035  31.1819269
  92.5635820  26.5260819  38.0644511  93.2960992  25.9560036  38.2982341
  91.8075175  26.1382420  38.5051017  81.8380398  29.4877914  31.5561164
  81.7216657  28.8122817  32.2242249  81.9482658  29.0010287  30.7393317
  84.1811939  28.9488061  35.2607854  83.8170147  28.4218682  35.9720775
  85.0379055  28.5586530  35.0874339  90.0861240  20.2382393  42.5239120
  89.7544565  21.1077804  42.3000335  89.4906853  19.9218677  43.2033150
  83.8217426  23.9777960  30.2569202  83.9891829  24.8458197  30.6239673
  83.6314595  24.1405242  29.3330491  86.5792760  32.4394939  41.9235033
  86.2793483  33.3419978  41.8150840  86.2343819  32.1727122  42.7756185
  80.0305241  28.8908736  37.9571737  79.1055738  28.7584950  38.1649429
  80.2789654  29.6702955  38.4541679  89.9789903  24.9577479  39.6032470
  89.0706781  24.8892888  39.3091231  89.9277499  25.4349424  40.4314295
  83.8006647  26.4335618  31.2415869  83.6806272  26.8792669  32.0801349
  83.1059236  26.7820936  30.6829407  77.3914052  28.5342010  38.7915526
  77.5206433  28.7876489  39.7054938  76.7111503  29.1269718  38.4720181
  81.5613539  39.2039260  34.8906000  81.4837569  40.1547085  34.9694481
  80.9575183  38.8585132  35.5480927  84.0530769  26.3767125  47.5467367
  83.2764103  26.9361045  47.5370232  84.6921332  26.8623908  48.0682237
  91.8451550  23.1593918  41.3810344  91.2025930  23.4526451  40.7350138
  91.3406478  23.0446838  42.1863540  89.4991713  26.9057091  32.0696203
  90.4109570  27.1384478  31.8943901  88.9901360  27.4894135  31.5071282
  82.3077141  29.1852578  47.1085334  83.0491826  29.7237622  46.8320158
  81.6014127  29.8118867  47.2656886  87.7832481  31.3281719  45.7057496
  88.1915837  30.8864129  44.9612128  87.0609743  30.7534346  45.9591689
  84.1363551  26.2654326  43.0791053  84.9824746  26.6893739  43.2225702
  84.0762189  25.6087950  43.7729616  88.1061296  31.8882909  39.4609784
  87.4770158  32.0528624  38.7585852  87.7186958  32.3024519  40.2320749
  91.9850528  32.8237347  36.8154148  91.3001566  33.2036249  36.2651182
  92.0694377  33.4332674  37.5486096  87.2862996  23.9258694  44.7372226
  87.0423928  24.6800755  44.2006502  87.5622927  24.3044042  45.5719473
  89.2401459  30.4697306  43.4149492  89.4518354  31.1129066  42.7383873
  89.1931207  29.6359623  42.9471422  86.8427688  23.0815127  40.3186064
  85.9812167  23.3796381  40.6102801  86.8690123  23.2985526  39.3867097
  83.6589258  31.6257318  36.7259870  84.1227603  31.9045021  35.9364492
  83.3946056  30.7240762  36.5432960  80.5513339  31.1728799  39.6639633
  81.1214696  31.6016067  39.0257117  81.1421451  30.8911384  40.3623819
  82.5958144  27.7480470  33.5349435  83.2982187  28.2001514  34.0023361
  82.2638772  27.1064289  34.1629328  81.0438505  26.3392227  47.9100644
  80.4137166  27.0208507  48.1436041  80.9374593  26.2275308  46.9653782
  76.3383478  26.0064023  38.8366568  75.5482532  26.2621551  38.3606679
  76.8294725  26.8212360  38.9418609  90.3547287  33.3469262  41.5871849
  91.1764731  32.9449449  41.3054531  90.3509690  33.2437496  42.5387965
  78.2898223  26.3708602  35.7950045  77.4929386  26.4827296  36.3133541
  78.0623815  26.7095254  34.9290936  84.1203891  32.8953305  43.7432560
  84.1848323  33.3573712  44.5790731  83.4114814  32.2650670  43.8714869
  74.6221181  26.2594513  41.2681559  74.8729219  27.1441523  41.5339135
  75.1580729  26.0799115  40.4956651  98.4453280  29.6908010  37.9356821
  97.6916989  29.1215408  37.7800825  98.5800821  29.6570675  38.8827455
  83.8351908  34.5621413  33.6111540  83.6997583  35.4072948  34.0396388
  84.3761721  34.7640690  32.8477474  80.3219248  20.6412992  50.2725895
  79.9286193  20.0879191  50.9473539  81.1385388  20.9523571  50.6632413
  77.2881306  32.0796851  34.1839465  77.8005826  32.8740101  34.3345030
  77.9404018  31.3823141  34.1173066  79.0976190  35.1962607  36.2662218
  79.2742819  36.1180572  36.0783202  79.8933024  34.8821026  36.6956598
  83.2387209  22.0570872  47.8646152  83.9796922  22.6578025  47.7850614
  83.4705132  21.3148509  47.3064194  78.3828547  27.2427239  46.1424381
  78.2682062  26.3412496  46.4431480  77.5273065  27.4890936  45.7909198
  85.4620385  35.1844979  47.7411882  85.0184239  34.3981358  47.4232787
  86.1237598  35.3724130  47.0755773  80.2207506  36.7140781  42.2672561
  80.7714931  36.5857844  41.4949554  79.3818982  37.0135670  41.9167453
  87.5601623  35.4647779  45.7693283  87.5420098  36.2856660  45.2773552
  88.4821543  35.3401854  45.9943424  84.0174677  32.9791908  46.6116792
  84.5503014  32.2180197  46.3816100  83.4888758  32.6865560  47.3540946
  87.1844372  18.0851974  42.1410433  86.8408641  18.9753616  42.0649544
  87.5523334  17.8953632  41.2780018  75.2530222  30.4085505  34.9599036
  76.0905444  30.8182513  34.7432743  75.4308490  29.4684947  34.9299229
  87.1494655  28.0760586  30.6482869  86.6341278  28.8465190  30.8871256
  86.8771963  27.4025722  31.2715930  84.7341766  22.9210286  35.7068107
  83.8783362  22.5317137  35.5273746  85.1468717  23.0002247  34.8467892
  86.2640912  20.4556630  40.1059667  85.7605708  20.4186765  39.2927472
  86.5571519  21.3649372  40.1656323  82.5083798  20.5395359  39.1125848
  83.3736795  20.3438168  38.7531738  82.5761307  20.3105711  40.0395205
  92.1228929  30.8292940  32.5836042  91.3458371  30.4904100  32.1391204
  92.8020410  30.8345563  31.9091007  86.9380958  25.9487678  32.4742650
  86.6331093  26.2633827  33.3252793  87.8911400  26.0269098  32.5169983
  85.3827390  32.1077901  34.1235604  84.8548751  31.3730661  33.8108841
  84.8814892  32.8852577  33.8775572  90.3620236  30.3026921  39.2402650
  89.7043910  30.9926183  39.3282779  91.1660635  30.6923353  39.5836636
  80.1146117  22.7697567  36.4842215  80.6889869  22.5472749  35.7515408
  80.7017100  22.8386262  37.2370817  89.1725694  28.6571294  37.2906592
  89.6857576  29.2901286  37.7928301  89.8226918  28.0572490  36.9249952
  80.4415704  24.8002028  30.5038100  79.6053017  25.1376715  30.8247375
  80.3020474  24.6651008  29.5665237  82.4168785  19.6438816  35.2117285
  81.7633197  19.3287833  34.5873899  82.3749259  19.0214557  35.9377108
  83.5279990  29.9258111  27.1270577  82.6207051  29.6947365  27.3261726
  84.0251022  29.1295730  27.3144558  86.4348069  38.6355618  30.0467263
  85.7609767  38.9387315  30.6552221  86.8213891  39.4384699  29.6972720
  85.6506525  26.1320750  39.5364932  84.7329087  26.3535697  39.3786620
  86.0666669  26.2067060  38.6776640  86.4341573  27.5312165  34.6667613
  87.1813392  28.0433563  34.3574735  86.7033163  27.2096218  35.5272006
  84.7068223  30.0270706  31.6494567  83.7979442  29.7429739  31.7467037
  84.7363307  30.4469785  30.7897874  89.9387491  33.6377296  35.4185734
  89.4849818  32.7968205  35.4750925  89.3081457  34.2738694  35.7560515
  88.8820410  24.5669282  36.6486402  88.1443167  24.0546668  36.9796644
  89.1347184  24.1269663  35.8369679  88.3820430  35.4753792  36.3535553
  88.6743404  36.0358849  35.6347918  88.8919050  35.7682353  37.1088712
  88.9832037  17.3445534  37.2428171  89.2890914  16.4842897  36.9554086
  89.7084642  17.9363154  37.0427165  75.2756394  27.7476220  35.6309769
  75.0780793  27.1545581  34.9060836  74.7203058  27.4428430  36.3485708
  83.2553117  27.6399327  37.7504362  83.3101727  26.6873163  37.6746839
  82.4444319  27.7958766  38.2345661  84.4044311  31.5679450  28.9882645
  83.9663741  30.8515309  28.5288283  85.1454752  31.7955565  28.4267737
  81.1945477  26.2576386  35.5094741  80.3813343  26.5570557  35.9159933
  81.6904471  25.8632075  36.2269223  83.3454055  36.2534143  37.4429006
  83.3030234  36.4794990  36.5137538  84.2616754  36.0197518  37.5914807
  86.7919689  26.7218211  44.3409635  87.1469077  26.9489684  45.2004101
  87.4391820  27.0536588  43.7186890  92.5217426  29.8436647  35.0458964
  92.3835324  30.0338243  34.1180153  92.1653645  30.6056030  35.5027015
  80.6859552  23.8294742  41.1255976  81.3258931  23.6883501  40.4278939
  79.8537082  23.5429255  40.7494578  92.5486805  31.9113174  40.0570235
  92.9823312  31.8188463  40.9053289  93.2618386  31.8870674  39.4190251
  81.4619856  33.1297172  37.2390968  82.2560454  32.6347493  37.0373543
  80.7511548  32.6015036  36.8758674  86.2814700  35.5115268  41.5903336
  86.3351723  36.0806204  42.3581052  85.4129482  35.6817153  41.2257373
  77.7702619  27.2740254  33.3150721  76.8400207  27.2124710  33.5320683
  77.8660091  26.7516207  32.5187362  77.6888168  23.7995067  35.9028963
  77.9494986  24.7140400  35.7938123  78.5105341  23.3319510  36.0525576
  79.1613094  25.2132824  43.0727787  79.8336147  25.0050186  42.4240436
  78.3342880  25.0154910  42.6333020  93.4102355  31.9536874  42.5903121
  93.6038245  32.8582685  42.8362396  93.3102973  31.4944294  43.4241706
  85.0638666  21.8394765  45.0893448  84.4166581  22.5384715  44.9957925
  85.8339681  22.2730909  45.4569696  88.4717464  32.1043617  48.1644001
  88.3202970  31.8754169  47.2474085  88.4622143  33.0614219  48.1775346
  85.2402800  29.6775530  43.1490268  86.1694860  29.8286690  42.9759235
  84.8193830  29.7659551  42.2938914  84.0391132  33.7026194  40.9188806
  83.9002218  33.3344979  41.7914744  83.2505728  34.2173834  40.7472763
  84.6339284  38.8035291  32.2614342  84.8091039  38.3323334  33.0759965
  83.9472072  39.4301057  32.4895603  85.5896347  33.0807797  38.3077643
  85.2546180  33.0408567  39.2035293  85.0900293  32.4152513  37.8348054
  79.5640591  28.4875427  43.8330224  79.4260389  27.7555666  44.4341764
  80.4745514  28.3984327  43.5514412  88.5255539  30.4263831  28.5814703
  87.9084709  29.7010660  28.4847756  88.0572027  31.1873192  28.2381777
  82.1922892  28.1995386  43.3213904  82.9022510  27.5588579  43.2800523
  82.1492200  28.4508281  44.2440085  90.1809670  35.1362740  46.2420483
  90.1222216  34.4521960  45.5751066  90.5829189  35.8781730  45.7901109
  80.9051826  25.1860604  45.1409544  80.3689183  24.7351343  45.7931140
  80.3168534  25.3206513  44.3980008  79.2000369  41.9524654  39.0354202
  79.4396967  42.5843178  39.7133221  78.3569566  41.6012694  39.3219561
  80.3154085  24.6449256  27.7036007  79.4383551  24.5238057  27.3398254
  80.7911838  23.8535334  27.4514896  90.1827078  33.1002324  44.4734463
  89.2953856  32.7628245  44.5960862  90.7525629  32.3685355  44.7103228
  76.6390947  24.3216612  42.2262538  76.5549136  23.7142282  41.4912948
  75.8173653  24.8125630  42.2272034  83.7128231  37.7603776  41.4395706
  83.6398402  38.5658748  41.9515011  83.2705624  37.9595742  40.6143728
  83.5018011  36.9975546  34.9498528  82.7185532  37.5397226  35.0436752
  84.2010756  37.5149526  35.3492769  86.8114661  22.8070176  37.5932733
  87.3083360  22.0540138  37.2733803  86.0401642  22.8434492  37.0275942
  94.6644418  28.5110541  39.2351025  94.6534294  29.3935256  38.8644958
  93.7961798  28.1582092  39.0405562  86.1726914  37.6590610  43.5953865
  86.8854887  38.2938075  43.5229766  85.6816943  37.7554476  42.7793867
  87.8944441  31.5641863  35.1671157  86.9600720  31.6843325  34.9975861
  88.0721110  30.6614330  34.9031166  83.3949629  24.9487559  37.3204418
  83.0247417  24.3958599  38.0085323  83.8908722  24.3445692  36.7679418
  91.2816993  27.4059182  35.7021191  91.7477445  28.2387174  35.6281493
  91.7324493  26.9404164  36.4066449  81.2238828  35.4085054  44.4159436
  81.9248287  36.0421537  44.5688830  80.7533943  35.7499785  43.6555075
  89.3493224  33.7503003  32.7007343  89.6253068  33.6359598  33.6101217
  88.4797723  33.3520488  32.6619516  89.2533655  19.7739769  39.7412092
  88.3396735  20.0043996  39.9094299  89.6826757  19.8578213  40.5926124
  89.0240114  27.9629661  42.2411986  88.3711564  28.2105568  41.5864439
  89.4020494  27.1493799  41.9074463  85.9847288  37.9989354  36.3440156
  86.1669682  37.1811010  36.8067909  86.8080274  38.2157046  35.9065046
  86.3189453  36.9257539  33.6055205  86.8477220  36.4149994  32.9925367
  86.5817673  36.6100070  34.4700738  85.0727687  28.7049472  48.7278023
  84.3968324  28.6043601  49.3980398  85.8955321  28.5488686  49.1914020
  76.8206546  34.9421409  41.3490538  77.4059983  34.1965096  41.4818443
  76.6231385  35.2525365  42.2327202  79.6745201  37.9772656  36.3652981
  79.0055577  38.4618784  35.8817021  79.5358071  38.2241876  37.2796359
  71.4124201  27.5127009  40.0694982  71.4508300  26.9790599  40.8632100
  70.9064494  26.9862214  39.4505959  83.8150470  40.0116400  42.9635639
  84.3668778  40.1748021  43.7284724  84.1556663  40.6020837  42.2915664
  78.7914963  22.3591549  43.5657524  78.8556290  23.2206380  43.1534922
  78.7282083  21.7465551  42.8329882  78.2667236  24.4314682  47.2130558
  78.8939274  24.0491759  47.8268082  77.4095154  24.2128884  47.5786251
  88.6661344  34.8377657  48.8184294  89.2101248  35.4507615  48.3239248
  88.0848189  35.3957235  49.3351307  75.0432778  26.2391111  33.1448913
  75.3386219  25.3301789  33.0915967  74.1420814  26.2178850  32.8229915
  86.9518857  37.9598375  39.9499321  86.8269997  37.1588115  39.4410267
  87.6097948  38.4544568  39.4613291  78.5727025  24.3147108  39.1276462
  77.8513611  24.9283075  38.9883935  79.3620281  24.8504872  39.0493107
  89.0153766  35.7607395  41.5778871  88.0684101  35.6412746  41.5057198
  89.3636539  34.8729893  41.6605133  81.3753339  21.6501534  45.4017113
  81.8987741  21.8963831  46.1643423  81.1565672  22.4821569  44.9820251
  76.7720620  23.9205209  33.2688238  76.4433326  23.0402588  33.0863344
  77.1259991  23.8652877  34.1564627  86.0200199  35.5560111  37.7783224
  85.8725161  34.6276819  37.9590794  86.8453692  35.5780202  37.2940299
  79.8862443  24.2078178  33.6363716  80.2258516  24.7364100  32.9142324
  80.3334564  24.5458585  34.4122282  89.6234321  36.3788670  38.8648096
  90.5480868  36.1731531  38.7272547  89.4549624  36.1305071  39.7737438
  82.5805884  22.5915229  43.0866784  82.2402704  21.7923042  43.4887464
  81.8744890  22.8916940  42.5143617  83.2322356  19.6764542  41.5394107
  84.0548425  19.2025020  41.4172997  83.4760419  20.4555025  42.0392793
  81.8730590  22.7052800  31.8357009  82.5938953  23.0834053  31.3320725
  81.2495894  23.4241677  31.9391986  86.0161713  23.4097949  32.7715341
  86.2325328  24.2922587  32.4704169  85.5355780  23.0184162  32.0420983
  80.7560935  26.3683662  39.3486085  80.6105515  26.6823965  40.2410367
  80.2786138  26.9868563  38.7956984  82.6157317  23.3586210  39.3966975
  82.6018886  22.4627303  39.0599273  83.3329746  23.3656874  40.0305261
  84.4683448  23.7923550  41.4420102  84.2101226  24.7140621  41.4404433
  83.9368488  23.3953985  42.1320567  89.4129637  36.8974338  34.2210188
  89.5866514  36.3320760  33.4684040  89.9058528  37.6975232  34.0389678
  75.2306597  28.9089007  42.2873747  74.6860065  29.6848815  42.4194021
  76.1085947  29.2559811  42.1292868  82.0194213  22.2400590  34.6654545
  82.1410125  21.3117237  34.8645433  81.7296256  22.2539276  33.7532861
  84.8885404  19.9255501  37.8021265  84.9107101  19.9894834  36.8473245
  85.3053463  19.0860010  37.9961771  95.2669028  29.6610760  35.8400488
  95.7100174  28.9118086  35.4419611  94.3895538  29.6520897  35.4574220
  90.4004809  36.2141102  31.3207086  91.0955714  36.8347795  31.5394401
  90.7427959  35.3636453  31.5959464  76.0172619  28.0358903  45.1803903
  75.2754355  28.1841538  45.7668534  75.6965363  28.2967168  44.3170653
  92.2996232  33.6640807  32.8494417  92.8247557  34.0028080  32.1243737
  92.2118585  32.7287823  32.6657551  83.9616281  37.5774881  44.9784293
  84.2703408  37.3324028  45.8506993  84.7591763  37.7821520  44.4903164
  83.9836893  39.7312791  37.2089670  83.5441884  39.2389169  37.9022527
  84.7345010  39.1885758  36.9681745  81.4310765  35.2750800  39.2811972
  80.8090775  34.6121505  38.9814200  82.1015632  35.3011932  38.5985619
  74.6637837  33.8410658  38.1703232  73.8269746  33.4132832  37.9887233
  74.6361483  34.0343101  39.1074023  81.5035293  23.7532588  48.8744478
  81.5523448  24.6294711  48.4922247  82.0457807  23.2109981  48.3016121
  91.9890139  34.2973711  48.1545615  91.1985682  34.2797850  47.6150114
  91.7523493  34.8362005  48.9094651  92.1088014  31.1466177  45.4678343
  92.1586019  30.9816185  46.4093866  92.0001937  30.2793436  45.0776224
  80.9924272  33.8254723  32.7570432  81.1412393  34.5090188  32.1037105
  81.7990716  33.8059813  33.2719888  89.3991776  27.1297105  46.7837650
  90.3001639  26.9903570  46.4921648  89.4739750  27.2951560  47.7235827
  83.7334581  24.5063960  45.6290836  82.8637891  24.7997526  45.3573425
  83.9694062  25.0904405  46.3498100  93.6106210  33.5663119  45.7120365
  93.3191019  33.9293100  46.5483826  92.9978342  32.8530127  45.5333697
  94.8101893  31.1315999  38.2322935  95.6448784  31.5705803  38.3960495
  94.9461022  30.6554652  37.4131181  91.8593399  28.6895734  44.1800423
  92.3347520  28.8823380  43.3719274  90.9358964  28.7454919  43.9343807
  78.7476905  29.8519901  33.7631501  78.5022947  28.9482231  33.9611711
  78.9172820  29.8537051  32.8210979  86.4373615  20.7243577  43.1456257
  86.9555559  21.4604604  42.8202745  86.0828748  21.0307570  43.9803016
  78.0172553  25.5848258  31.2617663  77.3241798  25.6592613  30.6057699
  77.7724305  24.8208602  31.7839180  86.6886209  17.1443860  38.6657153
  86.9687963  16.4767049  39.2917580  87.4736816  17.3372955  38.1531817
  84.4919678  36.3202854  30.2282180  83.9193645  36.9393041  29.7752652
  85.0652471  36.8702215  30.7622102  90.5595068  25.5661494  42.4128728
  91.5112491  25.6659591  42.4340953  90.3898518  24.7739762  42.9226813
  88.5809447  22.6517077  42.5988129  87.9859379  22.9322090  41.9034618
  88.2959144  23.1410978  43.3704870  87.7116938  36.6040004  31.3590762
  88.6447611  36.5385565  31.5623637  87.6240150  37.4396271  30.9005295
  90.3404954  35.9205874  28.3194710  90.2618586  35.5865738  29.2130467
  91.1614621  36.4127642  28.3186182  93.0383145  28.7867613  41.5271028
  93.0059466  27.8483614  41.7130712  93.6483769  28.8651650  40.7936853
  84.8766476  27.6563666  27.5698232  85.8225581  27.5269874  27.6386650
  84.4980721  26.9178328  28.0467660  93.1877634  25.5778657  41.5729311
  92.6716683  24.7937113  41.3859240  94.0717582  25.2497373  41.7375831
  90.8488361  19.3219672  37.5325124  90.6513182  19.0134761  38.4168456
  91.4588066  20.0481311  37.6623054  98.8559695  29.8483620  40.6677065
  99.5863084  29.5868908  41.2284768  98.2466641  29.1112342  40.7079133
  96.9374992  27.9891483  41.2651516  96.2108156  27.8547448  40.6568008
  96.5222279  28.2968311  42.0708234  84.7605169  31.7081412  49.0298889
  85.6808178  31.8860011  49.2238936  84.7254752  30.7637458  48.8778588
  83.0609393  25.5813643  27.5053117  82.1540849  25.2846755  27.5815831
  83.3385374  25.2843461  26.6387404  73.9787334  26.9020006  37.9552164
  73.6590118  26.0485314  37.6626538  73.4320762  27.1168584  38.7110131
  77.7567241  29.6182447  41.6721670  77.9753251  30.5499555  41.6909704
  78.1693015  29.2590422  42.4576474  84.6771459  20.1250532  33.6597359
  83.8672188  19.7797617  34.0352605  85.3655876  19.8158076  34.2484970
  86.6062007  19.2028579  35.2821655  87.1593046  19.6224033  35.9411678
  86.8432094  18.2764327  35.3244611  82.6295107  25.1915653  51.0624419
  82.5291834  26.1410010  50.9936510  82.4116649  24.8633892  50.1900489
  81.8308178  22.4400578  27.6465097  82.6927342  22.7655476  27.9060914
  82.0158522  21.6532074  27.1338162  73.8475594  30.5222918  39.9245285
  73.1539065  30.1076870  39.4115240  74.5948585  30.5643454  39.3278704
  89.9840815  21.3129104  34.7900320  89.4039484  21.9713908  34.4078372
  89.7176747  20.4906449  34.3787737  88.4344381  20.7134162  36.9921640
  88.9344159  20.8250697  36.1835959  89.0779989  20.4095215  37.6322448
  82.4926377  28.6212792  49.8789481  82.0093458  29.4213152  50.0853370
  82.5787316  28.6320737  48.9256925  75.7612336  30.4541171  37.8011300
  75.7383024  30.5528859  36.8493183  76.0712973  31.3006322  38.1228466
  78.4199714  32.5117326  41.9157915  79.3742968  32.4801269  41.8487846
  78.2212238  32.0507950  42.7308141  79.0099096  31.0818442  44.4828712
  79.8291985  31.5762521  44.5063550  79.2835904  30.1650411  44.4546280
  88.7665693  23.4729195  33.8456668  87.8791548  23.7578845  33.6276863
  89.1819682  23.3122958  32.9983945  92.1180229  23.4975716  37.5611007
  92.8940619  23.9872168  37.8335624  91.3928363  23.9233770  38.0182877
  94.5552787  24.2103335  38.6184948  95.1497278  23.9699071  37.9078256
  94.6279371  23.4910466  39.2458484  76.7749943  38.0536946  38.9328113
  76.6404411  37.2937347  38.3666111  76.3582005  38.7777846  38.4656901
  87.9108906  33.2373869  27.9404688  88.6144756  33.4423872  28.5562343
  87.1871555  33.8050631  28.2053771  88.7406716  28.9883731  34.0606958
  88.6841918  29.4452282  33.2214590  89.2935059  28.2274415  33.8829801
  92.5511522  24.7773463  34.8857078  92.2948456  24.3770098  35.7165285
  91.9264390  25.4917257  34.7607217  96.8623860  27.5169536  37.3928369
  96.3023418  27.5862725  38.1659931  96.2567363  27.3410520  36.6727865
  79.9319069  38.9506263  39.1446555  79.8151453  39.8951695  39.0425245
  79.1111515  38.6479825  39.5332354  89.8195603  33.6756399  29.9903148
  90.6541207  33.2437597  29.8080623  89.6579946  33.5038412  30.9180042
  89.4741496  30.1788512  31.3559487  89.4190299  30.0132783  30.4147931
  88.8487551  30.8864545  31.5121677  74.2634011  25.4156576  45.1820909
  74.9092874  24.9055530  45.6708135  74.0551162  26.1525258  45.7564335
  86.7887403  32.4837424  50.6813050  87.6578562  32.6578076  50.3199685
  86.3094154  33.3031841  50.5588779  82.7837621  19.6796621  30.9344806
  82.7716291  20.6238461  31.0913076  83.6761043  19.4966766  30.6404267
  80.9573583  39.6034525  42.3602484  81.8600830  39.6358135  42.6768979
  80.7310953  38.6734976  42.3748819  82.7127185  38.3565511  39.0212562
  81.7622816  38.3567373  38.9076935  83.0159671  37.6098246  38.5048597
  86.5989741  16.2739398  35.1890742  85.8322136  15.7197884  35.3347425
  87.0100446  16.3461266  36.0504894  78.6031502  22.5624193  49.2795924
  79.4662963  22.2060998  49.4899248  78.0296912  22.2238088  49.9671328
  98.4479879  44.1926050  40.0858325  99.0858288  44.0732797  39.3821665
  98.3300721  45.1406894  40.1446277  95.2569585  44.1453478  40.0219849
  94.9188096  44.0294543  39.1340384  96.1259353  43.7444643  40.0020855
  91.1156401  45.9988954  36.0116740  90.5521266  45.9078891  35.2433028
  91.0008796  45.1788859  36.4919233  95.7389368  45.2988330  45.9806055
  95.7278009  44.9041128  45.1086559  95.9010007  44.5654402  46.5739826
  88.6620832  47.4940146  38.8500961  89.4542124  47.1530971  38.4347260
  88.9017483  47.6035121  39.7703114  96.6955959  49.6659922  31.3231205
  96.0443939  50.2514002  30.9365219  97.4900322  50.1966117  31.3826243
  90.6211586  46.7549059  31.7218340  91.3942462  46.2078046  31.5831215
  90.9736985  47.6193308  31.9332801  92.4596629  48.0825441  44.9285239
  92.1686495  48.9871072  44.8131905  93.0953613  48.1241969  45.6429308
  93.3852836  45.4602290  41.5186598  93.9816408  45.2358312  40.8043561
  93.4427807  44.7187035  42.1212046  92.9577864  42.9141725  29.3536789
  93.2103385  42.3923247  28.5920252  92.0202423  42.7507871  29.4563473
  98.0021147  41.9177504  37.1611533  98.7884236  41.4996927  36.8101950
  98.2659851  42.8223596  37.3293181  98.1731224  47.3550354  31.8600189
  97.5377057  47.4284980  32.5721094  97.8428631  47.9443953  31.1819269
  92.6774153  44.8169831  31.5561164  92.5610411  44.1414735  32.2242249
  92.7876413  44.3302205  30.7393317  95.0205694  44.2779978  35.2607854
  94.6563901  43.7510599  35.9720775  95.8772810  43.8878447  35.0874339
 100.9254995  35.5674311  42.5239120 100.5938319  36.4369722  42.3000335
 100.3300608  35.2510595  43.2033150  94.6611181  39.3069878  30.2569202
  94.8285583  40.1750114  30.6239673  94.4708350  39.4697160  29.3330491
  97.4186514  47.7686857  41.9235033  97.1187237  48.6711896  41.8150840
  97.0737574  47.5019040  42.7756185  90.8698996  44.2200654  37.9571737
  89.9449492  44.0876868  38.1649429  91.1183409  44.9994873  38.4541679
 100.8183658  40.2869397  39.6032470  99.9100535  40.2184806  39.3091231
 100.7671254  40.7641342  40.4314295  94.6400402  41.7627536  31.2415869
  94.5200027  42.2084586  32.0801349  93.9452990  42.1112853  30.6829407
  88.2307807  43.8633927  38.7915526  88.3600188  44.1168406  39.7054938
  87.5505258  44.4561635  38.4720181  92.4007294  54.5331177  34.8906000
  92.3231324  55.4839002  34.9694481  91.7968937  54.1877050  35.5480927
  94.8924524  41.7059043  47.5467367  94.1157858  42.2652963  47.5370232
  95.5315087  42.1915826  48.0682237 102.6845304  38.4885836  41.3810344
 102.0419684  38.7818369  40.7350138 102.1800233  38.3738756  42.1863540
 100.3385468  42.2349009  32.0696203 101.2503324  42.4676395  31.8943901
  99.8295115  42.8186053  31.5071282  93.1470896  44.5144496  47.1085334
  93.8885580  45.0529540  46.8320158  92.4407881  45.1410785  47.2656886
  98.6226236  46.6573637  45.7057496  99.0309592  46.2156047  44.9612128
  97.9003497  46.0826264  45.9591689  94.9757306  41.5946243  43.0791053
  95.8218501  42.0185657  43.2225702  94.9155943  40.9379868  43.7729616
  98.9455050  47.2174827  39.4609784  98.3163913  47.3820541  38.7585852
  98.5580712  47.6316437  40.2320749 102.8244282  48.1529265  36.8154148
 102.1395320  48.5328166  36.2651182 102.9088131  48.7624592  37.5486096
  98.1256751  39.2550612  44.7372226  97.8817683  40.0092672  44.2006502
  98.4016681  39.6335959  45.5719473 100.0795214  45.7989224  43.4149492
 100.2912109  46.4420984  42.7383873 100.0324962  44.9651541  42.9471422
  97.6821443  38.4107045  40.3186064  96.8205922  38.7088298  40.6102801
  97.7083877  38.6277444  39.3867097  94.4983012  46.9549235  36.7259870
  94.9621358  47.2336938  35.9364492  94.2339810  46.0532680  36.5432960
  91.3907093  46.5020717  39.6639633  91.9608450  46.9307985  39.0257117
  91.9815205  46.2203301  40.3623819  93.4351898  43.0772388  33.5349435
  94.1375941  43.5293431  34.0023361  93.1032527  42.4356206  34.1629328
  91.8832260  41.6684144  47.9100644  91.2530920  42.3500425  48.1436041
  91.7768348  41.5567226  46.9653782  87.1777232  41.3355940  38.8366568
  86.3876286  41.5913469  38.3606679  87.6688479  42.1504278  38.9418609
 101.1941042  48.6761179  41.5871849 102.0158485  48.2741367  41.3054531
 101.1903445  48.5729414  42.5387965  89.1291977  41.7000520  35.7950045
  88.3323141  41.8119214  36.3133541  88.9017570  42.0387172  34.9290936
  94.9597645  48.2245223  43.7432560  95.0242078  48.6865630  44.5790731
  94.2508569  47.5942588  43.8714869  85.4614935  41.5886431  41.2681559
  85.7122973  42.4733441  41.5339135  85.9974483  41.4091032  40.4956651
  94.6745663  49.8913330  33.6111540  94.5391338  50.7364866  34.0396388
  95.2155475  50.0932608  32.8477474  91.1613002  35.9704910  50.2725895
  90.7679948  35.4171109  50.9473539  91.9779143  36.2815489  50.6632413
  88.1275060  47.4088768  34.1839465  88.6399581  48.2032019  34.3345030
  88.7797773  46.7115059  34.1173066  89.9369945  50.5254525  36.2662218
  90.1136573  51.4472489  36.0783202  90.7326778  50.2112944  36.6956598
  94.0780963  37.3862789  47.8646152  94.8190677  37.9869942  47.7850614
  94.3098886  36.6440427  47.3064194  89.2222301  42.5719156  46.1424381
  89.1075817  41.6704414  46.4431480  88.3666819  42.8182853  45.7909198
  96.3014139  50.5136897  47.7411882  95.8577993  49.7273275  47.4232787
  96.9631353  50.7016047  47.0755773  91.0601260  52.0432698  42.2672561
  91.6108685  51.9149762  41.4949554  90.2212736  52.3427587  41.9167453
  98.3995377  50.7939697  45.7693283  98.3813853  51.6148578  45.2773552
  99.3215297  50.6693772  45.9943424  94.8568431  48.3083826  46.6116792
  95.3896768  47.5472114  46.3816100  94.3282512  48.0157478  47.3540946
  98.0238126  33.4143892  42.1410433  97.6802396  34.3045534  42.0649544
  98.3917089  33.2245550  41.2780018  86.0923977  45.7377423  34.9599036
  86.9299199  46.1474431  34.7432743  86.2702245  44.7976865  34.9299229
  97.9888409  43.4052503  30.6482869  97.4735032  44.1757108  30.8871256
  97.7165717  42.7317639  31.2715930  95.5735520  38.2502204  35.7068107
  94.7177116  37.8609054  35.5273746  95.9862472  38.3294165  34.8467892
  97.1034667  35.7848547  40.1059667  96.5999462  35.7478682  39.2927472
  97.3965274  36.6941290  40.1656323  93.3477553  35.8687277  39.1125848
  94.2130549  35.6730086  38.7531738  93.4155062  35.6397629  40.0395205
 102.9622683  46.1584858  32.5836042 102.1852126  45.8196017  32.1391204
 103.6414164  46.1637481  31.9091007  97.7774712  41.2779595  32.4742650
  97.4724848  41.5925745  33.3252793  98.7305154  41.3561015  32.5169983
  96.2221144  47.4369819  34.1235604  95.6942506  46.7022578  33.8108841
  95.7208647  48.2144495  33.8775572 101.2013990  45.6318839  39.2402650
 100.5437665  46.3218101  39.3282779 102.0054389  46.0215271  39.5836636
  90.9539872  38.0989485  36.4842215  91.5283624  37.8764666  35.7515408
  91.5410854  38.1678179  37.2370817 100.0119449  43.9863212  37.2906592
 100.5251331  44.6193204  37.7928301 100.6620673  43.3864407  36.9249952
  91.2809459  40.1293946  30.5038100  90.4446771  40.4668632  30.8247375
  91.1414228  39.9942926  29.5665237  93.2562539  34.9730734  35.2117285
  92.6026952  34.6579751  34.5873899  93.2143014  34.3506474  35.9377108
  94.3673744  45.2550029  27.1270577  93.4600806  45.0239282  27.3261726
  94.8644776  44.4587648  27.3144558  97.2741823  53.9647536  30.0467263
  96.6003522  54.2679233  30.6552221  97.6607645  54.7676616  29.6972720
  96.4900280  41.4612667  39.5364932  95.5722841  41.6827614  39.3786620
  96.9060423  41.5358978  38.6776640  97.2735328  42.8604083  34.6667613
  98.0207146  43.3725480  34.3574735  97.5426917  42.5388136  35.5272006
  95.5461978  45.3562624  31.6494567  94.6373197  45.0721657  31.7467037
  95.5757061  45.7761702  30.7897874 100.7781245  48.9669213  35.4185734
 100.3243572  48.1260123  35.4750925 100.1475212  49.6030612  35.7560515
  99.7214165  39.8961199  36.6486402  98.9836921  39.3838586  36.9796644
  99.9740938  39.4561581  35.8369679  99.2214184  50.8045710  36.3535553
  99.5137159  51.3650767  35.6347918  99.7312805  51.0974271  37.1088712
  99.8225792  32.6737451  37.2428171 100.1284669  31.8134815  36.9554086
 100.5478397  33.2655072  37.0427165  86.1150148  43.0768138  35.6309769
  85.9174548  42.4837499  34.9060836  85.5596812  42.7720348  36.3485708
  94.0946872  42.9691244  37.7504362  94.1495482  42.0165081  37.6746839
  93.2838074  43.1250683  38.2345661  95.2438065  46.8971367  28.9882645
  94.8057495  46.1807226  28.5288283  95.9848506  47.1247482  28.4267737
  92.0339232  41.5868304  35.5094741  91.2207097  41.8862475  35.9159933
  92.5298226  41.1923993  36.2269223  94.1847810  51.5826061  37.4429006
  94.1423988  51.8086907  36.5137538  95.1010508  51.3489436  37.5914807
  97.6313443  42.0510129  44.3409635  97.9862831  42.2781602  45.2004101
  98.2785575  42.3828505  43.7186890 103.3611180  45.1728564  35.0458964
 103.2229079  45.3630160  34.1180153 103.0047399  45.9347947  35.5027015
  91.5253306  39.1586660  41.1255976  92.1652686  39.0175419  40.4278939
  90.6930837  38.8721173  40.7494578  92.3013610  48.4589090  37.2390968
  93.0954209  47.9639410  37.0373543  91.5905303  47.9306953  36.8758674
  97.1208455  50.8407186  41.5903336  97.1745477  51.4098122  42.3581052
  96.2523236  51.0109071  41.2257373  88.6096374  42.6032172  33.3150721
  87.6793962  42.5416627  33.5320683  88.7053846  42.0808125  32.5187362
  88.5281923  39.1286985  35.9028963  88.7888740  40.0432318  35.7938123
  89.3499095  38.6611427  36.0525576  90.0006848  40.5424742  43.0727787
  90.6729902  40.3342104  42.4240436  89.1736635  40.3446828  42.6333020
  95.9032420  37.1686683  45.0893448  95.2560335  37.8676632  44.9957925
  96.6733436  37.6022827  45.4569696  99.3111218  47.4335535  48.1644001
  99.1596725  47.2046087  47.2474085  99.3015898  48.3906136  48.1775346
  96.0796555  45.0067448  43.1490268  97.0088615  45.1578607  42.9759235
  95.6587585  45.0951468  42.2938914  94.8784886  49.0318112  40.9188806
  94.7395972  48.6636896  41.7914744  94.0899483  49.5465751  40.7472763
  95.4733038  54.1327209  32.2614342  95.6484794  53.6615252  33.0759965
  94.7865826  54.7592975  32.4895603  96.4290101  48.4099715  38.3077643
  96.0939934  48.3700485  39.2035293  95.9294047  47.7444431  37.8348054
  90.4034345  43.8167345  43.8330224  90.2654143  43.0847584  44.4341764
  91.3139269  43.7276245  43.5514412  99.3649293  45.7555749  28.5814703
  98.7478464  45.0302577  28.4847756  98.8965782  46.5165109  28.2381777
  93.0316646  43.5287304  43.3213904  93.7416265  42.8880496  43.2800523
  92.9885954  43.7800199  44.2440085 101.0203425  50.4654657  46.2420483
 100.9615971  49.7813878  45.5751066 101.4222943  51.2073647  45.7901109
  91.7445580  40.5152522  45.1409544  91.2082937  40.0643260  45.7931140
  91.1562289  40.6498431  44.3980008  90.0394124  57.2816571  39.0354202
  90.2790722  57.9135095  39.7133221  89.1963320  56.9304611  39.3219561
  91.1547839  39.9741173  27.7036007  90.2777305  39.8529974  27.3398254
  91.6305592  39.1827252  27.4514896 101.0220832  48.4294241  44.4734463
 100.1347611  48.0920163  44.5960862 101.5919383  47.6977273  44.7103228
  82.6749979  44.7618333  37.7977514  83.3621019  44.4480063  37.2098530
  82.5198108  45.6659698  37.5244766  87.4784701  39.6508530  42.2262538
  87.3942890  39.0434199  41.4912948  86.6567408  40.1417548  42.2272034
  94.5521985  53.0895694  41.4395706  94.4792157  53.8950665  41.9515011
  94.1099379  53.2887660  40.6143728  94.3411765  52.3267464  34.9498528
  93.5579287  52.8689144  35.0436752  95.0404510  52.8441443  35.3492769
  97.6508415  38.1362093  37.5932733  98.1477115  37.3832056  37.2733803
  96.8795397  38.1726410  37.0275942  97.0120669  52.9882528  43.5953865
  97.7248641  53.6229993  43.5229766  96.5210698  53.0846394  42.7793867
  98.7338196  46.8933780  35.1671157  97.7994475  47.0135243  34.9975861
  98.9114864  45.9906247  34.9031166  94.2343384  40.2779476  37.3204418
  93.8641171  39.7250517  38.0085323  94.7302476  39.6737610  36.7679418
 102.1210747  42.7351100  35.7021191 102.5871199  43.5679091  35.6281493
 102.5718248  42.2696081  36.4066449  92.0632582  50.7376971  44.4159436
  92.7642042  51.3713454  44.5688830  91.5927697  51.0791703  43.6555075
 100.1886978  49.0794921  32.7007343 100.4646822  48.9651516  33.6101217
  99.3191477  48.6812406  32.6619516 100.0927410  35.1031687  39.7412092
  99.1790490  35.3335914  39.9094299 100.5220511  35.1870131  40.5926124
  99.8633868  43.2921579  42.2411986  99.2105319  43.5397486  41.5864439
 100.2414248  42.4785717  41.9074463  96.8241042  53.3281272  36.3440156
  97.0063437  52.5102928  36.8067909  97.6474028  53.5448964  35.9065046
  97.1583208  52.2549457  33.6055205  97.6870974  51.7441912  32.9925367
  97.4211427  51.9391987  34.4700738  95.9121441  44.0341390  48.7278023
  95.2362078  43.9335519  49.3980398  96.7349075  43.8780603  49.1914020
  87.6600301  50.2713326  41.3490538  88.2453737  49.5257014  41.4818443
  87.4625139  50.5817283  42.2327202  90.5138956  53.3064574  36.3652981
  89.8449331  53.7910701  35.8817021  90.3751825  53.5533794  37.2796359
  82.2517955  42.8418926  40.0694982  82.2902055  42.3082517  40.8632100
  81.7458248  42.3154132  39.4505959  94.6544224  55.3408317  42.9635639
  95.2062532  55.5039939  43.7284724  94.9950418  55.9312755  42.2915664
  89.6308718  37.6883467  43.5657524  89.6950044  38.5498298  43.1534922
  89.5675838  37.0757469  42.8329882  89.1060990  39.7606600  47.2130558
  89.7333029  39.3783677  47.8268082  88.2488909  39.5420801  47.5786251
  99.5055099  50.1669575  48.8184294 100.0495003  50.7799533  48.3239248
  98.9241944  50.7249153  49.3351307  85.8826533  41.5683029  33.1448913
  86.1779974  40.6593707  33.0915967  84.9814569  41.5470768  32.8229915
  97.7912612  53.2890293  39.9499321  97.6663751  52.4880033  39.4410267
  98.4491703  53.7836486  39.4613291  89.4120780  39.6439025  39.1276462
  88.6907366  40.2574993  38.9883935  90.2014036  40.1796790  39.0493107
  99.8547520  51.0899313  41.5778871  98.9077856  50.9704664  41.5057198
 100.2030293  50.2021811  41.6605133  92.2147093  36.9793452  45.4017113
  92.7381495  37.2255748  46.1643423  91.9959427  37.8113487  44.9820251
  87.6114374  39.2497126  33.2688238  87.2827081  38.3694505  33.0863344
  87.9653745  39.1944795  34.1564627  96.8593953  50.8852029  37.7783224
  96.7118916  49.9568736  37.9590794  97.6847447  50.9072120  37.2940299
  90.7256198  39.5370096  33.6363716  91.0652270  40.0656017  32.9142324
  91.1728318  39.8750502  34.4122282 100.4628075  51.7080588  38.8648096
 101.3874623  51.5023449  38.7272547 100.2943379  51.4596989  39.7737438
  93.4199638  37.9207147  43.0866784  93.0796459  37.1214960  43.4887464
  92.7138645  38.2208858  42.5143617  94.0716110  35.0056459  41.5394107
  94.8942180  34.5316937  41.4172997  94.3154174  35.7846943  42.0392793
  92.7124345  38.0344718  31.8357009  93.4332707  38.4125970  31.3320725
  92.0889649  38.7533594  31.9391986  96.8555468  38.7389867  32.7715341
  97.0719082  39.6214505  32.4704169  96.3749535  38.3476080  32.0420983
  91.5954689  41.6975580  39.3486085  91.4499270  42.0115883  40.2410367
  91.1179893  42.3160480  38.7956984  93.4551072  38.6878128  39.3966975
  93.4412641  37.7919221  39.0599273  94.1723500  38.6948792  40.0305261
  95.3077203  39.1215468  41.4420102  95.0494980  40.0432539  41.4404433
  94.7762243  38.7245903  42.1320567 100.2523391  52.2266255  34.2210188
 100.4260269  51.6612678  33.4684040 100.7452283  53.0267150  34.0389678
  86.0700351  44.2380924  42.2873747  85.5253819  45.0140732  42.4194021
  86.9479701  44.5851729  42.1292868  92.8587968  37.5692508  34.6654545
  92.9803879  36.6409154  34.8645433  92.5690010  37.5831194  33.7532861
  95.7279158  35.2547419  37.8021265  95.7500855  35.3186752  36.8473245
  96.1447217  34.4151927  37.9961771 101.2398564  51.5433020  31.3207086
 101.9349468  52.1639712  31.5394401 101.5821714  50.6928371  31.5959464
  86.8566373  43.3650821  45.1803903  86.1148109  43.5133456  45.7668534
  86.5359117  43.6259086  44.3170653 103.1389987  48.9932725  32.8494417
 103.6641311  49.3319998  32.1243737 103.0512340  48.0579740  32.6657551
  94.8010036  52.9066799  44.9784293  95.1097162  52.6615946  45.8506993
  95.5985518  53.1113437  44.4903164  94.8230648  55.0604708  37.2089670
  94.3835638  54.5681087  37.9022527  95.5738765  54.5177676  36.9681745
  87.3022987  51.2516249  37.2114298  88.1281007  50.9520021  36.8312942
  86.9517039  50.4823872  37.6604087  92.2704520  50.6042717  39.2811972
  91.6484529  49.9413423  38.9814200  92.9409387  50.6303849  38.5985619
  85.5031592  49.1702576  38.1703232  84.6663500  48.7424750  37.9887233
  85.4755237  49.3635019  39.1074023  92.3429047  39.0824506  48.8744478
  92.3917203  39.9586628  48.4922247  92.8851562  38.5401899  48.3016121
 102.8283893  49.6265629  48.1545615 102.0379437  49.6089768  47.6150114
 102.5917248  50.1653922  48.9094651 102.9481768  46.4758095  45.4678343
 102.9979773  46.3108103  46.4093866 102.8395691  45.6085354  45.0776224
  91.8318027  49.1546641  32.7570432  91.9806147  49.8382105  32.1037105
  92.6384470  49.1351731  33.2719888 100.2385530  42.4589023  46.7837650
 101.1395393  42.3195488  46.4921648 100.3133505  42.6243478  47.7235827
  94.5728336  39.8355878  45.6290836  93.7031645  40.1289444  45.3573425
  94.8087816  40.4196323  46.3498100 102.6987153  44.0187651  44.1800423
 103.1741275  44.2115298  43.3719274 101.7752719  44.0746837  43.9343807
  89.5870660  45.1811818  33.7631501  89.3416702  44.2774148  33.9611711
  89.7566574  45.1828969  32.8210979  97.2767370  36.0535495  43.1456257
  97.7949314  36.7896522  42.8202745  96.9222502  36.3599488  43.9803016
  88.8566307  40.9140176  31.2617663  88.1635552  40.9884531  30.6057699
  88.6118059  40.1500520  31.7839180  97.5279964  32.4735777  38.6657153
  97.8081718  31.8058966  39.2917580  98.3130571  32.6664873  38.1531817
  95.3313432  51.6494771  30.2282180  94.7587399  52.2684958  29.7752652
  95.9046226  52.1994133  30.7622102 101.3988822  40.8953411  42.4128728
 102.3506245  40.9951509  42.4340953 101.2292273  40.1031680  42.9226813
  99.4203202  37.9808995  42.5988129  98.8253134  38.2614007  41.9034618
  99.1352898  38.4702896  43.3704870  98.5510692  51.9331921  31.3590762
  99.4841365  51.8677483  31.5623637  98.4633905  52.7688188  30.9005295
 101.1798709  51.2497792  28.3194710 101.1012340  50.9157655  29.2130467
 102.0008376  51.7419560  28.3186182  95.7160231  42.9855584  27.5698232
  96.6619336  42.8561792  27.6386650  95.3374476  42.2470246  28.0467660
 101.6882115  34.6511590  37.5325124 101.4906936  34.3426678  38.4168456
 102.2981821  35.3773229  37.6623054  95.5998923  47.0373330  49.0298889
  96.5201933  47.2151929  49.2238936  95.5648506  46.0929376  48.8778588
  93.9003148  40.9105560  27.5053117  92.9934603  40.6138673  27.5815831
  94.1779129  40.6135379  26.6387404  84.8181088  42.2311924  37.9552164
  84.4983873  41.3777232  37.6626538  84.2714517  42.4460502  38.7110131
  88.5960996  44.9474365  41.6721670  88.8147006  45.8791473  41.6909704
  89.0086770  44.5882339  42.4576474  95.5165214  35.4542450  33.6597359
  94.7065942  35.1089535  34.0352605  96.2049631  35.1449994  34.2484970
  97.4455762  34.5320497  35.2821655  97.9986801  34.9515950  35.9411678
  97.6825848  33.6056245  35.3244611  93.4688861  40.5207571  51.0624419
  93.3685588  41.4701928  50.9936510  93.2510403  40.1925809  50.1900489
  92.6701933  37.7692496  27.6465097  93.5321097  38.0947394  27.9060914
  92.8552277  36.9823992  27.1338162  84.6869348  45.8514835  39.9245285
  83.9932820  45.4368788  39.4115240  85.4342339  45.8935372  39.3278704
 100.8234569  36.6421022  34.7900320 100.2433238  37.3005826  34.4078372
 100.5570502  35.8198367  34.3787737  99.2738135  36.0426080  36.9921640
  99.7737914  36.1542614  36.1835959  99.9173743  35.7387133  37.6322448
  93.3320131  43.9504709  49.8789481  92.8487213  44.7505070  50.0853370
  93.4181070  43.9612654  48.9256925  86.6006091  45.7833089  37.8011300
  86.5776779  45.8820776  36.8493183  86.9106727  46.6298240  38.1228466
  89.2593469  47.8409244  41.9157915  90.2136722  47.8093186  41.8487846
  89.0605992  47.3799868  42.7308141  89.8492851  46.4110360  44.4828712
  90.6685740  46.9054439  44.5063550  90.1229659  45.4942328  44.4546280
  99.6059447  38.8021112  33.8456668  98.7185302  39.0870763  33.6276863
 100.0213436  38.6414876  32.9983945 102.9573983  38.8267633  37.5611007
 103.7334373  39.3164086  37.8335624 102.2322117  39.2525688  38.0182877
  87.6143698  53.3828864  38.9328113  87.4798165  52.6229265  38.3666111
  87.1975760  54.1069763  38.4656901  98.7502661  48.5665787  27.9404688
  99.4538511  48.7715790  28.5562343  98.0265309  49.1342549  28.2053771
  99.5800471  44.3175648  34.0606958  99.5235672  44.7744200  33.2214590
 100.1328813  43.5566333  33.8829801 103.3905277  40.1065380  34.8857078
 103.1342211  39.7062016  35.7165285 102.7658145  40.8209174  34.7607217
  90.7712823  54.2798181  39.1446555  90.6545208  55.2243613  39.0425245
  89.9505270  53.9771742  39.5332354 100.6589358  49.0048316  29.9903148
 101.4934962  48.5729515  29.8080623 100.4973701  48.8330330  30.9180042
 100.3135250  45.5080430  31.3559487 100.2584054  45.3424701  30.4147931
  99.6881305  46.2156463  31.5121677  85.1027765  40.7448494  45.1820909
  85.7486629  40.2347448  45.6708135  84.8944916  41.4817176  45.7564335
  97.6281157  47.8129342  50.6813050  98.4972317  47.9869994  50.3199685
  97.1487909  48.6323758  50.5588779  93.6231376  35.0088539  30.9344806
  93.6110045  35.9530379  31.0913076  94.5154797  34.8258684  30.6404267
  91.7967338  54.9326443  42.3602484  92.6994584  54.9650053  42.6768979
  91.5704708  54.0026893  42.3748819  93.5520940  53.6857429  39.0212562
  92.6016571  53.6859291  38.9076935  93.8553426  52.9390164  38.5048597
  97.4383495  31.6031315  35.1890742  96.6715891  31.0489802  35.3347425
  97.8494200  31.6753184  36.0504894  89.4425256  37.8916111  49.2795924
  90.3056718  37.5352916  49.4899248  88.8690667  37.5530006  49.9671328
 101.9550155  61.3280872  36.0116740 101.3915020  61.2370809  35.2433028
 101.8402550  60.5080776  36.4919233  99.5014587  62.8232064  38.8500961
 100.2935879  62.4822888  38.4347260  99.7411237  62.9327039  39.7703114
 101.4605341  62.0840977  31.7218340 102.2336217  61.5369964  31.5831215
 101.8130740  62.9485226  31.9332801 103.5167907  60.1461749  31.5561164
 103.4004166  59.4706652  32.2242249 103.6270167  59.6594123  30.7393317
 101.7092750  59.5492571  37.9571737 100.7843246  59.4168786  38.1649429
 101.9577163  60.3286791  38.4541679  99.0701561  59.1925845  38.7915526
  99.1993942  59.4460324  39.7054938  98.3899012  59.7853553  38.4720181
 103.2401048  69.8623095  34.8906000 103.1625078  70.8130920  34.9694481
 102.6362692  69.5168967  35.5480927 102.2300848  61.8312634  39.6639633
 102.8002205  62.2599903  39.0257117 102.8208959  61.5495219  40.3623819
 102.7226014  56.9976062  47.9100644 102.0924675  57.6792343  48.1436041
 102.6162102  56.8859144  46.9653782  98.0170987  56.6647858  38.8366568
  97.2270041  56.9205386  38.3606679  98.5082234  57.4796196  38.9418609
  99.9685732  57.0292437  35.7950045  99.1716895  57.1411131  36.3133541
  99.7411324  57.3679089  34.9290936  96.3008690  56.9178348  41.2681559
  96.5516728  57.8025358  41.5339135  96.8368238  56.7382950  40.4956651
 102.0006757  51.2996828  50.2725895 101.6073702  50.7463026  50.9473539
 102.8172897  51.6107406  50.6632413  98.9668815  62.7380686  34.1839465
  99.4793335  63.5323936  34.3345030  99.6191527  62.0406976  34.1173066
 100.7763699  65.8546442  36.2662218 100.9530328  66.7764407  36.0783202
 101.5720533  65.5404861  36.6956598 100.0616056  57.9011074  46.1424381
  99.9469571  56.9996331  46.4431480  99.2060574  58.1474771  45.7909198
 101.8995015  67.3724616  42.2672561 102.4502440  67.2441679  41.4949554
 101.0606491  67.6719505  41.9167453  96.9317731  61.0669340  34.9599036
  97.7692953  61.4766349  34.7432743  97.1095999  60.1268782  34.9299229
 101.7933626  53.4281403  36.4842215 102.3677378  53.2056584  35.7515408
 102.3804609  53.4970097  37.2370817 102.1203213  55.4585864  30.5038100
 101.2840526  55.7960550  30.8247375 101.9807983  55.3234843  29.5665237
  96.9543903  58.4060056  35.6309769  96.7568302  57.8129416  34.9060836
  96.3990567  58.1012266  36.3485708 102.8732986  56.9160222  35.5094741
 102.0600852  57.2154392  35.9159933 103.3691980  56.5215911  36.2269223
 102.3647061  54.4878577  41.1255976 103.0046440  54.3467336  40.4278939
 101.5324591  54.2013091  40.7494578  99.4490128  57.9324089  33.3150721
  98.5187716  57.8708545  33.5320683  99.5447600  57.4100042  32.5187362
  99.3675677  54.4578902  35.9028963  99.6282495  55.3724236  35.7938123
 100.1892850  53.9903345  36.0525576 100.8400603  55.8716659  43.0727787
 101.5123656  55.6634022  42.4240436 100.0130389  55.6738745  42.6333020
 101.2428100  59.1459262  43.8330224 101.1047898  58.4139501  44.4341764
 102.1533023  59.0568163  43.5514412 102.5839335  55.8444440  45.1409544
 102.0476692  55.3935178  45.7931140 101.9956043  55.9790348  44.3980008
 100.8787878  72.6108489  39.0354202 101.1184476  73.2427013  39.7133221
 100.0357075  72.2596529  39.3219561 101.9941594  55.3033091  27.7036007
 101.1171060  55.1821892  27.3398254 102.4699347  54.5119169  27.4514896
  93.5143734  60.0910251  37.7977514  94.2014773  59.7771981  37.2098530
  93.3591862  60.9951615  37.5244766  98.3178456  54.9800447  42.2262538
  98.2336645  54.3726117  41.4912948  97.4961162  55.4709466  42.2272034
 102.9026337  66.0668889  44.4159436 103.6035796  66.7005372  44.5688830
 102.4321452  66.4083620  43.6555075  98.4994055  65.6005244  41.3490538
  99.0847492  64.8548932  41.4818443  98.3018893  65.9109201  42.2327202
 101.3532710  68.6356491  36.3652981 100.6843086  69.1202619  35.8817021
 101.2145580  68.8825712  37.2796359  93.0911710  58.1710844  40.0694982
  93.1295809  57.6374435  40.8632100  92.5852003  57.6446050  39.4505959
 100.4702472  53.0175385  43.5657524 100.5343799  53.8790216  43.1534922
 100.4069592  52.4049386  42.8329882  99.9454745  55.0898517  47.2130558
 100.5726783  54.7075595  47.8268082  99.0882663  54.8712719  47.5786251
  96.7220287  56.8974946  33.1448913  97.0173728  55.9885625  33.0915967
  95.8208323  56.8762686  32.8229915 100.2514534  54.9730943  39.1276462
  99.5301120  55.5866911  38.9883935 101.0407790  55.5088708  39.0493107
 103.0540848  52.3085369  45.4017113 103.5775250  52.5547666  46.1643423
 102.8353181  53.1405404  44.9820251  98.4508129  54.5789044  33.2688238
  98.1220835  53.6986423  33.0863344  98.8047500  54.5236713  34.1564627
 101.5649952  54.8662014  33.6363716 101.9046025  55.3947935  32.9142324
 102.0122073  55.2042420  34.4122282 102.4348443  57.0267498  39.3486085
 102.2893024  57.3407801  40.2410367 101.9573647  57.6452398  38.7956984
  96.9094106  59.5672842  42.2873747  96.3647574  60.3432650  42.4194021
  97.7873456  59.9143646  42.1292868  97.6960128  58.6942738  45.1803903
  96.9541864  58.8425374  45.7668534  97.3752872  58.9551004  44.3170653
  98.1416741  66.5808167  37.2114298  98.9674761  66.2811939  36.8312942
  97.7910793  65.8115789  37.6604087  96.3425346  64.4994493  38.1703232
  95.5057255  64.0716668  37.9887233  96.3148992  64.6926937  39.1074023
 103.1822802  54.4116423  48.8744478 103.2310957  55.2878546  48.4922247
 103.7245316  53.8693816  48.3016121 102.6711781  64.4838559  32.7570432
 102.8199902  65.1674023  32.1037105 103.4778225  64.4643649  33.2719888
 100.4264414  60.5103736  33.7631501 100.1810456  59.6066066  33.9611711
 100.5960329  60.5120887  32.8210979  99.6960062  56.2432094  31.2617663
  99.0029307  56.3176449  30.6057699  99.4511814  55.4792437  31.7839180
  95.6574843  57.5603842  37.9552164  95.3377627  56.7069150  37.6626538
  95.1108271  57.7752420  38.7110131  99.4354750  60.2766283  41.6721670
  99.6540760  61.2083390  41.6909704  99.8480524  59.9174257  42.4576474
  95.5263103  61.1806753  39.9245285  94.8326574  60.7660706  39.4115240
  96.2736094  61.2227290  39.3278704  97.4399845  61.1125007  37.8011300
  97.4170533  61.2112694  36.8493183  97.7500482  61.9590158  38.1228466
 100.0987223  63.1701162  41.9157915 101.0530477  63.1385104  41.8487846
  99.8999747  62.7091786  42.7308141 100.6886605  61.7402278  44.4828712
 101.5079494  62.2346357  44.5063550 100.9623413  60.8234246  44.4546280
  98.4537452  68.7120781  38.9328113  98.3191920  67.9521182  38.3666111
  98.0369514  69.4361681  38.4656901 101.6106578  69.6090098  39.1446555
 101.4938962  70.5535531  39.0425245 100.7899024  69.3063660  39.5332354
  95.9421520  56.0740412  45.1820909  96.5880383  55.5639366  45.6708135
  95.7338671  56.8109093  45.7564335 102.6361092  70.2618360  42.3602484
 103.5388339  70.2941970  42.6768979 102.4098462  69.3318811  42.3748819
 100.2819011  53.2208029  49.2795924 101.1450472  52.8644834  49.4899248
  99.7084421  52.8821924  49.9671328  68.3606616   3.6294859  25.7599509
  68.6003214   4.2613383  26.4378527  67.5175812   3.2782899  26.0464868
  77.8227079   9.1710351  25.5746267  78.6148371   8.8301175  25.1592567
  78.0623729   9.2805326  26.4948421  79.7817833   8.4319264  18.4463646
  80.5548709   7.8848251  18.3076522  80.1343232   9.2963513  18.6578108
  81.6202876   9.7595646  31.6530545  81.3292742  10.6641277  31.5377212
  82.2559860   9.8012174  32.3674615  81.5613541  16.2101382  21.6151307
  81.4837570  17.1609207  21.6939787  80.9575184  15.8647255  22.2726233
  80.5513340   8.1790922  26.3884939  81.1214697   8.6078190  25.7502424
  81.1421452   7.8973506  27.0869125  84.1203892   9.9015428  30.4677866
  84.1848324  10.3635835  31.3036038  83.4114816   9.2712793  30.5960176
  83.8351910  11.5683535  20.3356847  83.6997584  12.4135071  20.7641694
  84.3761722  11.7702813  19.5722780  77.2881307   9.0858973  20.9084772
  77.8005827   9.8802223  21.0590336  77.9404020   8.3885264  20.8418373
  79.0976192  12.2024729  22.9907525  79.2742820  13.1242694  22.8028509
  79.8933025  11.8883149  23.4201905  85.4620386  12.1907102  34.4657189
  85.0184240  11.4043480  34.1478093  86.1237599  12.3786252  33.8001079
  80.2207507  13.7202903  28.9917867  80.7714932  13.5919967  28.2194861
  79.3818983  14.0197792  28.6412760  87.5601624  12.4709902  32.4938590
  87.5420099  13.2918783  32.0018859  88.4821544  12.3463977  32.7188731
  84.0174678   9.9854031  33.3362098  84.5503015   9.2242319  33.1061406
  83.4888759   9.6927683  34.0786253  75.2530224   7.4147627  21.6844342
  76.0905446   7.8244636  21.4678050  75.4308491   6.4747070  21.6544536
  88.3820431  12.4815915  23.0780859  88.6743405  13.0420972  22.3593225
  88.8919052  12.7744476  23.8334018  83.3454056  13.2596266  24.1674312
  83.3030235  13.4857112  23.2382844  84.2616755  13.0259641  24.3160113
  81.4619857  10.1359295  23.9636275  82.2560456   9.6409615  23.7618850
  80.7511549   9.6077158  23.6003981  86.2814702  12.5177391  28.3148643
  86.3351724  13.0868327  29.0826359  85.4129483  12.6879276  27.9502680
  84.0391133  10.7088317  27.6434112  83.9002219  10.3407101  28.5160050
  83.2505729  11.2235956  27.4718070  84.6339285  15.8097413  18.9859649
  84.8091041  15.3385457  19.8005271  83.9472073  16.4363180  19.2140909
  85.5896348  10.0869920  25.0322950  85.2546181  10.0470690  25.9280600
  85.0900294   9.4214636  24.5593360  90.1809672  12.1424862  32.9665790
  90.1222218  11.4584082  32.2996373  90.5829190  12.8843852  32.5146416
  79.2000370  18.9586776  25.7599509  79.4396969  19.5905300  26.4378527
  78.3569567  18.6074816  26.0464868  71.8356226   6.4388538  24.5222821
  72.5227266   6.1250268  23.9343836  71.6804355   7.3429903  24.2490072
  83.7128232  14.7665899  28.1641013  83.6398404  15.5720870  28.6760317
  83.2705625  14.9657864  27.3389034  83.5018012  14.0037669  21.6743834
  82.7185534  14.5459349  21.7682059  84.2010757  14.5211648  22.0738076
  86.1726916  14.6652733  30.3199172  86.8854888  15.3000197  30.2475073
  85.6816944  14.7616599  29.5039173  81.2238829  12.4147176  31.1404742
  81.9248289  13.0483659  31.2934137  80.7533944  12.7561908  30.3800382
  85.9847289  15.0051477  23.0685463  86.1669684  14.1873133  23.5313215
  86.8080275  15.2219169  22.6310353  86.3189455  13.9319662  20.3300511
  86.8477221  13.4212116  19.7170674  86.5817674  13.6162192  21.1946044
  76.8206547  11.9483531  28.0735845  77.4059984  11.2027219  28.2063749
  76.6231386  12.2587488  28.9572509  79.6745203  14.9834779  23.0898287
  79.0055578  15.4680906  22.6062327  79.5358072  15.2303999  24.0041666
  83.8150471  17.0178522  29.6880946  84.3668779  17.1810144  30.4530031
  84.1556665  17.6082960  29.0160971  88.6661345  11.8439780  35.5429600
  89.2101249  12.4569738  35.0484555  88.0848190  12.4019358  36.0596613
  86.9518858  14.9660498  26.6744628  86.8269998  14.1650237  26.1655573
  87.6097950  15.4606691  26.1858598  89.0153767  12.7669518  28.3024178
  88.0684102  12.6474869  28.2302505  89.3636540  11.8792016  28.3850439
  86.0200200  12.5622234  24.5028530  85.8725163  11.6338941  24.6836100
  86.8453694  12.5842325  24.0185605  89.6234322  13.3850793  25.5893403
  90.5480869  13.1793654  25.4517854  89.4549625  13.1367194  26.4982744
  75.2306598   5.9151129  29.0119053  74.6860066   6.6910937  29.1439328
  76.1085948   6.2621934  28.8538175  83.9616282  14.5837004  31.7029600
  84.2703409  14.3386150  32.5752300  84.7591764  14.7883642  31.2148470
  83.9836894  16.7374913  23.9334977  83.5441885  16.2451292  24.6267833
  84.7345011  16.1947881  23.6927052  76.4629233  12.9286454  23.9359605
  77.2887253  12.6290226  23.5558248  76.1123285  12.1594077  24.3849393
  81.4310767  12.2812922  26.0057278  80.8090776  11.6183627  25.7059506
  82.1015634  12.3074054  25.3230926  74.6637839  10.8472781  24.8948538
  73.8269747  10.4194955  24.7132540  74.6361484  11.0405224  25.8319330
  80.9924274  10.8316846  19.4815739  81.1412394  11.5152310  18.8282412
  81.7990717  10.8121936  19.9965195  84.4919679  13.3264976  16.9527486
  83.9193646  13.9455163  16.4997958  85.0652473  13.8764338  17.4867408
  73.8475595   7.5285040  26.6490592  73.1539067   7.1138993  26.1360546
  74.5948586   7.5705577  26.0524011  75.7612338   7.4603294  24.5256607
  75.7383026   7.5590981  23.5738490  76.0712974   8.3068445  24.8473773
  78.4199716   9.5179449  28.6403221  79.3742969   9.4863391  28.5733153
  78.2212239   9.0570073  29.4553447  79.0099098   8.0880565  31.2074019
  79.8291987   8.5824644  31.2308856  79.2835905   7.1712533  31.1791586
  76.7749944  15.0599069  25.6573419  76.6404412  14.2999469  25.0911417
  76.3582007  15.7839968  25.1902208  79.9319070  15.9568386  25.8691862
  79.8151454  16.9013818  25.7670552  79.1111516  15.6541947  26.2577661
  80.9573584  16.6096647  29.0847790  81.8600831  16.6420258  29.4014285
  80.7310954  15.6797098  29.0994126  82.7127186  15.3627634  25.7457869
  81.7622817  15.3629496  25.6322241  83.0159672  14.6160369  25.2293903
  98.4479880  21.1988172  26.8103631  99.0858290  21.0794920  26.1066971
  98.3300723  22.1469016  26.8691583  95.2569586  21.1515600  26.7465156
  94.9188098  21.0356665  25.8585691  96.1259354  20.7506766  26.7266162
  91.1156402  23.0051077  22.7362047  90.5521267  22.9141014  21.9678335
  91.0008797  22.1850981  23.2164539  95.7389369  22.3050452  32.7051361
  95.7278010  21.9103250  31.8331865  95.9010009  21.5716525  33.2985133
  88.6620834  24.5002269  25.5746267  89.4542126  24.1593093  25.1592567
  88.9017484  24.6097244  26.4948421  90.6211588  23.7611182  18.4463646
  91.3942464  23.2140169  18.3076522  90.9736987  24.6255431  18.6578108
  92.4596630  25.0887564  31.6530545  92.1686496  25.9933195  31.5377212
  93.0953615  25.1304092  32.3674615  93.3852837  22.4664413  28.2431905
  93.9816409  22.2420435  27.5288868  93.4427809  21.7249158  28.8457353
  95.0205695  21.2842101  21.9853160  94.6563902  20.7572722  22.6966082
  95.8772811  20.8940570  21.8119646  97.4186515  24.7748980  28.6480339
  97.1187238  25.6774018  28.5396146  97.0737575  24.5081163  29.5001492
  90.8698997  21.2262776  24.6817044  89.9449493  21.0938990  24.8894735
  91.1183410  22.0056996  25.1786986  88.2307808  20.8696050  25.5160833
  88.3600189  21.1230529  26.4300244  87.5505259  21.4623758  25.1965488
  92.4007295  31.5393300  21.6151307  92.3231325  32.4901125  21.6939787
  91.7968939  31.1939172  22.2726233  94.8924525  18.7121165  34.2712674
  94.1157859  19.2715085  34.2615538  95.5315088  19.1977948  34.7927544
  93.1470897  21.5206619  33.8330641  93.8885582  22.0591663  33.5565464
  92.4407883  22.1472907  33.9902193  98.6226237  23.6635759  32.4302802
  99.0309593  23.2218170  31.6857435  97.9003498  23.0888387  32.6836995
  94.9757307  18.6008366  29.8036359  95.8218502  19.0247779  29.9471008
  94.9155945  17.9441990  30.4974922  98.9455051  24.2236950  26.1855091
  98.3163914  24.3882664  25.4831159  98.5580714  24.6378559  26.9566055
  98.1256752  16.2612734  31.4617533  97.8817684  17.0154795  30.9251809
  98.4016683  16.6398082  32.2964780 100.0795215  22.8051347  30.1394798
 100.2912110  23.4483107  29.4629179 100.0324963  21.9713663  29.6716728
  97.6821444  15.4169167  27.0431371  96.8205923  15.7150421  27.3348108
  97.7083879  15.6339566  26.1112403  94.4983013  23.9611358  23.4505176
  94.9621359  24.2399061  22.6609799  94.2339811  23.0594802  23.2678267
  91.3907094  23.5082839  26.3884939  91.9608451  23.9370108  25.7502424
  91.9815206  23.2265424  27.0869125  93.4351899  20.0834510  20.2594741
  94.1375943  20.5355554  20.7268668  93.1032528  19.4418329  20.8874634
  91.8832261  18.6746267  34.6345951  91.2530922  19.3562548  34.8681348
  91.7768349  18.5629348  33.6899089  87.1777233  18.3418063  25.5611875
  86.3876287  18.5975591  25.0851986  87.6688481  19.1566401  25.6663915
 101.1941043  25.6823302  28.3117156 102.0158487  25.2803489  28.0299837
 101.1903446  25.5791536  29.2633272  89.1291979  18.7062642  22.5195352
  88.3323142  18.8181336  23.0378847  88.9017571  19.0449294  21.6536242
  94.9597646  25.2307345  30.4677866  95.0242079  25.6927753  31.3036038
  94.2508570  24.6004710  30.5960176  85.4614936  18.5948553  27.9926866
  85.7122975  19.4795563  28.2584442  85.9974485  18.4153155  27.2201958
  94.6745664  26.8975453  20.3356847  94.5391339  27.7426989  20.7641694
  95.2155477  27.0994730  19.5722780  91.1613004  12.9767033  36.9971202
  90.7679949  12.4233231  37.6718846  91.9779144  13.2877611  37.3877719
  88.1275061  24.4150891  20.9084772  88.6399582  25.2094141  21.0590336
  88.7797774  23.7177181  20.8418373  89.9369946  27.5316647  22.9907525
  90.1136574  28.4534612  22.8028509  90.7326780  27.2175066  23.4201905
  94.0780965  14.3924912  34.5891458  94.8190678  14.9932065  34.5095921
  94.3098887  13.6502550  34.0309501  89.2222303  19.5781279  32.8669688
  89.1075818  18.6766536  33.1676787  88.3666820  19.8244976  32.5154505
  96.3014140  27.5199019  34.4657189  95.8577995  26.7335398  34.1478093
  96.9631354  27.7078170  33.8001079  91.0601262  29.0494821  28.9917867
  91.6108687  28.9211884  28.2194861  90.2212737  29.3489710  28.6412760
  98.3995378  27.8001819  32.4938590  98.3813854  28.6210700  32.0018859
  99.3215299  27.6755894  32.7188731  94.8568433  25.3145949  33.3362098
  95.3896769  24.5534237  33.1061406  94.3282514  25.0219601  34.0786253
  86.0923978  22.7439545  21.6844342  86.9299200  23.1536554  21.4678050
  86.2702246  21.8038987  21.6544536  93.3477554  12.8749400  25.8371155
  94.2130551  12.6792208  25.4777044  93.4155063  12.6459751  26.7640512
  96.2221145  24.4431941  20.8480910  95.6942507  23.7084701  20.5354148
  95.7208648  25.2206618  20.6020879 101.2013991  22.6380962  25.9647957
 100.5437666  23.3280223  26.0528085 102.0054391  23.0277394  26.3081943
  90.9539873  15.1051608  23.2087522  91.5283625  14.8826789  22.4760715
  91.5410855  15.1740302  23.9616123  96.4900281  18.4674790  26.2610239
  95.5722842  18.6889737  26.1031927  96.9060425  18.5421100  25.4021946
  99.2214186  27.8107833  23.0780859  99.5137160  28.3712890  22.3593225
  99.7312806  28.1036394  23.8334018  86.1150149  20.0830260  22.3555076
  85.9174549  19.4899621  21.6306142  85.5596813  19.7782471  23.0731014
  94.0946873  19.9753367  24.4749669  94.1495483  19.0227203  24.3992145
  93.2838075  20.1312806  24.9590967  92.0339233  18.5930427  22.2340048
  91.2207098  18.8924597  22.6405240  92.5298227  18.1986115  22.9514530
  94.1847811  28.5888184  24.1674312  94.1423990  28.8149030  23.2382844
  95.1010510  28.3551558  24.3160113  97.6313445  19.0572251  31.0654942
  97.9862832  19.2843724  31.9249407  98.2785576  19.3890628  30.4432197
  91.5253308  16.1648782  27.8501283  92.1652687  16.0237541  27.1524246
  90.6930838  15.8783296  27.4739885  92.3013612  25.4651213  23.9636275
  93.0954210  24.9701533  23.7618850  91.5905304  24.9369076  23.6003981
  97.1208456  27.8469308  28.3148643  97.1745478  28.4160245  29.0826359
  96.2523237  28.0171193  27.9502680  88.6096375  19.6094294  20.0396028
  87.6793963  19.5478750  20.2565990  88.7053847  19.0870247  19.2432669
  88.5281924  16.1349107  22.6274269  88.7888741  17.0494440  22.5183430
  89.3499096  15.6673550  22.7770882  90.0006849  17.5486864  29.7973094
  90.6729903  17.3404227  29.1485743  89.1736636  17.3508950  29.3578326
  95.9032421  14.1748805  31.8138755  95.2560336  14.8738755  31.7203231
  96.6733437  14.6084949  32.1815003  99.3111219  24.4397657  34.8889308
  99.1596726  24.2108209  33.9719392  99.3015899  25.3968259  34.9020653
  96.0796556  22.0129570  29.8735575  97.0088616  22.1640730  29.7004542
  95.6587586  22.1013591  29.0184221  94.8784888  26.0380235  27.6434112
  94.7395973  25.6699019  28.5160050  94.0899484  26.5527874  27.4718070
  95.4733040  31.1389331  18.9859649  95.6484795  30.6677374  19.8005271
  94.7865828  31.7655097  19.2140909  96.4290103  25.4161837  25.0322950
  96.0939935  25.3762607  25.9280600  95.9294048  24.7506553  24.5593360
  90.4034347  20.8229467  30.5575531  90.2654145  20.0909706  31.1587070
  91.3139270  20.7338367  30.2759719  93.0316647  20.5349427  30.0459211
  93.7416266  19.8942619  30.0045829  92.9885955  20.7862322  30.9685392
 101.0203426  27.4716780  32.9665790 100.9615972  26.7876000  32.2996373
 101.4222944  28.2135770  32.5146416  91.7445581  17.5214645  31.8654850
  91.2082938  17.0705383  32.5176447  91.1562290  17.6560553  31.1225315
  90.0394125  34.2878694  25.7599509  90.2790723  34.9197218  26.4378527
  89.1963321  33.9366734  26.0464868 101.0220833  25.4356364  31.1979770
 100.1347612  25.0982286  31.3206169 101.5919384  24.7039395  31.4348535
  82.6749980  21.7680456  24.5222821  83.3621020  21.4542186  23.9343836
  82.5198109  22.6721820  24.2490072  87.4784703  16.6570652  28.9507845
  87.3942891  16.0496322  28.2158255  86.6567409  17.1479671  28.9517341
  94.5521987  30.0957816  28.1641013  94.4792158  30.9012788  28.6760317
  94.1099380  30.2949782  27.3389034  94.3411766  29.3329586  21.6743834
  93.5579288  29.8751267  21.7682059  95.0404511  29.8503566  22.0738076
  97.0120670  29.9944650  30.3199172  97.7248642  30.6292115  30.2475073
  96.5210699  30.0908516  29.5039173  94.2343385  17.2841599  24.0449724
  93.8641173  16.7312639  24.7330630  94.7302478  16.6799732  23.4924724
  92.0632584  27.7439094  31.1404742  92.7642043  28.3775577  31.2934137
  91.5927699  28.0853825  30.3800382  99.8633870  20.2983701  28.9657293
  99.2105320  20.5459609  28.3109745 100.2414250  19.4847839  28.6319770
  96.8241044  30.3343394  23.0685463  97.0063438  29.5165050  23.5313215
  97.6474030  30.5511087  22.6310353  97.1583209  29.2611580  20.3300511
  97.6870976  28.7504034  19.7170674  97.4211429  28.9454110  21.1946044
  95.9121443  21.0403512  35.4523330  95.2362080  20.9397642  36.1225705
  96.7349077  20.8842726  35.9159327  87.6600302  27.2775449  28.0735845
  88.2453739  26.5319137  28.2063749  87.4625140  27.5879406  28.9572509
  90.5138957  30.3126696  23.0898287  89.8449332  30.7972824  22.6062327
  90.3751827  30.5595917  24.0041666  82.2517957  19.8481049  26.7940288
  82.2902056  19.3144640  27.5877406  81.7458249  19.3216255  26.1751265
  94.6544226  32.3470440  29.6880946  95.2062534  32.5102061  30.4530031
  94.9950419  32.9374878  29.0160971  89.6308719  14.6945590  30.2902830
  89.6950045  15.5560420  29.8780228  89.5675839  14.0819591  29.5575189
  89.1060991  16.7668722  33.9375865  89.7333030  16.3845799  34.5513389
  88.2488910  16.5482924  34.3031557  99.5055100  27.1731697  35.5429600
 100.0495004  27.7861656  35.0484555  98.9241945  27.7311276  36.0596613
  85.8826534  18.5745151  19.8694220  86.1779975  17.6655830  19.8161273
  84.9814570  18.5532891  19.5475222  97.7912613  30.2952415  26.6744628
  97.6663752  29.4942155  26.1655573  98.4491704  30.7898609  26.1858598
  89.4120781  16.6501148  25.8521768  88.6907367  17.2637116  25.7129241
  90.2014037  17.1858913  25.7738414  99.8547521  28.0961435  28.3024178
  98.9077857  27.9766787  28.2302505 100.2030294  27.2083933  28.3850439
  92.2147095  13.9855574  32.1262420  92.7381496  14.2317871  32.8888729
  91.9959428  14.8175609  31.7065557  87.6114376  16.2559249  19.9933545
  87.2827082  15.3756628  19.8108651  87.9653746  16.2006918  20.8809934
  96.8593955  27.8914152  24.5028530  96.7118917  26.9630859  24.6836100
  97.6847448  27.9134242  24.0185605 100.4628076  28.7142710  25.5893403
 101.3874624  28.5085572  25.4517854 100.2943380  28.4659111  26.4982744
  93.4199640  14.9269269  29.8112090  93.0796460  14.1277082  30.2132770
  92.7138646  15.2270980  29.2388924  91.5954690  18.7037702  26.0731392
  91.4499271  19.0178006  26.9655674  91.1179894  19.3222603  25.5202291
  93.4551073  15.6940250  26.1212282  93.4412642  14.7981344  25.7844580
  94.1723501  15.7010914  26.7550568  95.3077204  16.1277591  28.1665409
  95.0494982  17.0494661  28.1649739  94.7762244  15.7308025  28.8565873
  86.0700352  21.2443047  29.0119053  85.5253820  22.0202855  29.1439328
  86.9479702  21.5913851  28.8538175  86.8566374  20.3712943  31.9049210
  86.1148110  20.5195578  32.4913841  86.5359119  20.6321209  31.0415960
  94.8010037  29.9128921  31.7029600  95.1097163  29.6678068  32.5752300
  95.5985519  30.1175560  31.2148470  94.8230649  32.0666831  23.9334977
  94.3835639  31.5743210  24.6267833  95.5738766  31.5239799  23.6927052
  87.3022988  28.2578372  23.9359605  88.1281008  27.9582144  23.5558248
  86.9517040  27.4885994  24.3849393  92.2704521  27.6104840  26.0057278
  91.6484530  26.9475545  25.7059506  92.9409388  27.6365972  25.3230926
  85.5031593  26.1764698  24.8948538  84.6663501  25.7486873  24.7132540
  85.4755238  26.3697142  25.8319330  92.3429049  16.0886628  35.5989784
  92.3917204  16.9648751  35.2167554  92.8851563  15.5464021  35.0261428
 102.8283894  26.6327751  34.8790921 102.0379438  26.6151890  34.3395421
 102.5917249  27.1716045  35.6339958 102.9481769  23.4820218  32.1923650
 102.9979774  23.3170225  33.1339173 102.8395693  22.6147477  31.8021531
  91.8318028  26.1608763  19.4815739  91.9806148  26.8444228  18.8282412
  92.6384471  26.1413853  19.9965195 100.2385532  19.4651146  33.5082957
 101.1395394  19.3257611  33.2166954 100.3133506  19.6305601  34.4481134
  94.5728337  16.8418001  32.3536143  93.7031646  17.1351567  32.0818732
  94.8087817  17.4258446  33.0743407 102.6987154  21.0249774  30.9045729
 103.1741276  21.2177420  30.0964581 101.7752720  21.0808960  30.6589113
  89.5870661  22.1873941  20.4876808  89.3416703  21.2836271  20.6857018
  89.7566576  22.1891092  19.5456286  88.8566309  17.9202299  17.9862969
  88.1635553  17.9946654  17.3303005  88.6118060  17.1562642  18.5084486
  95.3313434  28.6556894  16.9527486  94.7587401  29.2747081  16.4997958
  95.9046227  29.2056256  17.4867408 101.3988823  17.9015534  29.1374035
 102.3506246  18.0013632  29.1586259 101.2292274  17.1093803  29.6472119
  99.4203203  14.9871117  29.3233436  98.8253135  15.2676130  28.6279925
  99.1352900  15.4765018  30.0950177  95.5998925  24.0435453  35.7544196
  96.5201934  24.2214052  35.9484242  95.5648508  23.0991498  35.6023895
  84.8181090  19.2374046  24.6797470  84.4983874  18.3839355  24.3871844
  84.2714518  19.4522625  25.4355438  88.5960997  21.9536487  28.3966977
  88.8147007  22.8853595  28.4155011  89.0086771  21.5944462  29.1821781
  93.4688862  17.5269693  37.7869726  93.3685589  18.4764050  37.7181817
  93.2510405  17.1987932  36.9145796  84.6869350  22.8576958  26.6490592
  83.9932821  22.4430911  26.1360546  85.4342341  22.8997494  26.0524011
  93.3320133  20.9566832  36.6034788  92.8487214  21.7567192  36.8098677
  93.4181072  20.9674777  35.6502232  86.6006092  22.7895212  24.5256607
  86.5776780  22.8882899  23.5738490  86.9106729  23.6360362  24.8473773
  89.2593470  24.8471367  28.6403221  90.2136724  24.8155309  28.5733153
  89.0605994  24.3861990  29.4553447  89.8492852  23.4172483  31.2074019
  90.6685741  23.9116561  31.2308856  90.1229660  22.5004451  31.1791586
  87.6143699  30.3890986  25.6573419  87.4798167  29.6291387  25.0911417
  87.1975761  31.1131886  25.1902208  90.7712825  31.2860303  25.8691862
  90.6545209  32.2305736  25.7670552  89.9505271  30.9833865  26.2577661
  85.1027766  17.7510617  31.9066216  85.7486630  17.2409571  32.3953441
  84.8944917  18.4879298  32.4809641  97.6281159  24.8191464  37.4058357
  98.4972318  24.9932116  37.0444992  97.1487910  25.6385881  37.2834086
  91.7967339  31.9388565  29.0847790  92.6994585  31.9712175  29.4014285
  91.5704709  31.0089016  29.0994126  93.5520941  30.6919552  25.7457869
  92.6016572  30.6921413  25.6322241  93.8553427  29.9452286  25.2293903
  89.4425257  14.8978234  36.0041230  90.3056719  14.5415039  36.2144555
  88.8690668  14.5592129  36.6916635 101.9550156  38.3342995  22.7362047
 101.3915021  38.2432932  21.9678335 101.8402551  37.5142899  23.2164539
  99.5014588  39.8294186  25.5746267 100.2935880  39.4885011  25.1592567
  99.7411238  39.9389161  26.4948421 101.4605342  39.0903099  18.4463646
 102.2336218  38.5432087  18.3076522 101.8130741  39.9547349  18.6578108
 101.7092751  36.5554694  24.6817044 100.7843248  36.4230908  24.8894735
 101.9577164  37.3348913  25.1786986  99.0701562  36.1987968  25.5160833
  99.1993943  36.4522447  26.4300244  98.3899014  36.7915676  25.1965488
 103.2401050  46.8685218  21.6151307 103.1625079  47.8193043  21.6939787
 102.6362693  46.5231090  22.2726233 102.2300849  38.8374757  26.3884939
 102.8002206  39.2662025  25.7502424 102.8208961  38.5557342  27.0869125
 102.7226015  34.0038185  34.6345951 102.0924676  34.6854465  34.8681348
 102.6162103  33.8921266  33.6899089  98.0170988  33.6709981  25.5611875
  97.2270042  33.9267509  25.0851986  98.5082235  34.4858318  25.6663915
  99.9685733  34.0354560  22.5195352  99.1716897  34.1473254  23.0378847
  99.7411325  34.3741212  21.6536242  96.3008691  33.9240471  27.9926866
  96.5516729  34.8087481  28.2584442  96.8368239  33.7445073  27.2201958
 102.0006758  28.3058950  36.9971202 101.6073704  27.7525149  37.6718846
 102.8172898  28.6169529  37.3877719  98.9668816  39.7442809  20.9084772
  99.4793336  40.5386059  21.0590336  99.6191529  39.0469099  20.8418373
 100.7763701  42.8608565  22.9907525 100.9530329  43.7826530  22.8028509
 101.5720534  42.5466984  23.4201905 100.0616057  34.9073197  32.8669688
  99.9469572  34.0058454  33.1676787  99.2060575  35.1536893  32.5154505
 101.8995016  44.3786739  28.9917867 102.4502441  44.2503802  28.2194861
 101.0606492  44.6781628  28.6412760  96.9317733  38.0731463  21.6844342
  97.7692955  38.4828471  21.4678050  97.1096000  37.1330905  21.6544536
 101.7933627  30.4343525  23.2087522 102.3677379  30.2118707  22.4760715
 102.3804610  30.5032220  23.9616123  96.9543904  35.4122178  22.3555076
  96.7568304  34.8191539  21.6306142  96.3990568  35.1074388  23.0731014
 102.8732987  33.9222344  22.2340048 102.0600853  34.2216515  22.6405240
 103.3691982  33.5278033  22.9514530 102.3647062  31.4940700  27.8501283
 103.0046441  31.3529459  27.1524246 101.5324593  31.2075213  27.4739885
  99.4490130  34.9386212  20.0396028  98.5187718  34.8770668  20.2565990
  99.5447602  34.4162165  19.2432669  99.3675679  31.4641025  22.6274269
  99.6282496  32.3786358  22.5183430 100.1892851  30.9965467  22.7770882
 100.8400604  32.8778782  29.7973094 101.5123657  32.6696144  29.1485743
 100.0130390  32.6800868  29.3578326 101.2428101  36.1521385  30.5575531
 101.1047899  35.4201624  31.1587070 102.1533025  36.0630285  30.2759719
 102.5839336  32.8506562  31.8654850 102.0476693  32.3997301  32.5176447
 101.9956044  32.9852471  31.1225315 100.8787879  49.6170612  25.7599509
 101.1184478  50.2489136  26.4378527 100.0357076  49.2658652  26.0464868
  93.5143735  37.0972373  24.5222821  94.2014775  36.7834103  23.9343836
  93.3591864  38.0013738  24.2490072  98.3178457  31.9862570  28.9507845
  98.2336646  31.3788240  28.2158255  97.4961163  32.4771588  28.9517341
 102.9026338  43.0731011  31.1404742 103.6035798  43.7067494  31.2934137
 102.4321453  43.4145743  30.3800382  98.4994056  42.6067367  28.0735845
  99.0847493  41.8611054  28.2063749  98.3018895  42.9171323  28.9572509
 101.3532712  45.6418614  23.0898287 100.6843087  46.1264742  22.6062327
 101.2145581  45.8887834  24.0041666  93.0911711  35.1772967  26.7940288
  93.1295811  34.6436557  27.5877406  92.5852004  34.6508172  26.1751265
 100.4702473  30.0237507  30.2902830 100.5343800  30.8852338  29.8780228
 100.4069594  29.4111509  29.5575189  99.9454746  32.0960640  33.9375865
 100.5726785  31.7137717  34.5513389  99.0882665  31.8774842  34.3031557
  96.7220289  33.9037069  19.8694220  97.0173730  32.9947747  19.8161273
  95.8208324  33.8824808  19.5475222 100.2514536  31.9793065  25.8521768
  99.5301121  32.5929033  25.7129241 101.0407791  32.5150830  25.7738414
 103.0540849  29.3147492  32.1262420 103.5775251  29.5609789  32.8888729
 102.8353182  30.1467527  31.7065557  98.4508130  31.5851167  19.9933545
  98.1220836  30.7048545  19.8108651  98.8047501  31.5298835  20.8809934
 102.4348445  34.0329620  26.0731392 102.2893025  34.3469923  26.9655674
 101.9573648  34.6514520  25.5202291  96.9094107  36.5734965  29.0119053
  96.3647575  37.3494773  29.1439328  97.7873457  36.9205769  28.8538175
  97.6960129  35.7004861  31.9049210  96.9541865  35.8487496  32.4913841
  97.3752873  35.9613126  31.0415960  98.1416742  43.5870290  23.9359605
  98.9674762  43.2874061  23.5558248  97.7910794  42.8177912  24.3849393
  96.3425347  41.5056616  24.8948538  95.5057256  41.0778790  24.7132540
  96.3148993  41.6989059  25.8319330 103.1822803  31.4178546  35.5989784
 103.2310959  32.2940669  35.2167554 103.7245317  30.8755939  35.0261428
 102.6711783  41.4900681  19.4815739 102.8199903  42.1736145  18.8282412
 103.4778226  41.4705771  19.9965195 100.4264416  37.5165859  20.4876808
 100.1810457  36.6128189  20.6857018 100.5960330  37.5183009  19.5456286
  99.6960063  33.2494216  17.9862969  99.0029308  33.3238571  17.3303005
  99.4511815  32.4854560  18.5084486  95.6574844  34.5665964  24.6797470
  95.3377628  33.7131272  24.3871844  95.1108272  34.7814542  25.4355438
  99.4354752  37.2828405  28.3966977  99.6540761  38.2145513  28.4155011
  99.8480525  36.9236379  29.1821781  95.5263104  38.1868876  26.6490592
  94.8326576  37.7722828  26.1360546  96.2736095  38.2289412  26.0524011
  97.4399847  38.1187129  24.5256607  97.4170535  38.2174817  23.5738490
  97.7500483  38.9652280  24.8473773 100.0987224  40.1763284  28.6403221
 101.0530478  40.1447227  28.5733153  99.8999748  39.7153908  29.4553447
 100.6886607  38.7464400  31.2074019 101.5079496  39.2408479  31.2308856
 100.9623414  37.8296369  31.1791586  98.4537453  45.7182904  25.6573419
  98.3191921  44.9583305  25.0911417  98.0369516  46.4423804  25.1902208
 101.6106579  46.6152221  25.8691862 101.4938963  47.5597653  25.7670552
 100.7899025  46.3125782  26.2577661  95.9421521  33.0802534  31.9066216
  96.5880384  32.5701488  32.3953441  95.7338672  33.8171216  32.4809641
 102.6361093  47.2680483  29.0847790 103.5388340  47.3004093  29.4014285
 102.4098463  46.3380934  29.0994126 100.2819012  30.2270151  36.0041230
 101.1450473  29.8706956  36.2144555  99.7084423  29.8884046  36.6916635
   2.7841672  42.2349012  85.1714973   3.6959529  42.4676399  84.9962671
   2.2751320  42.8186056  84.6090052   5.2700487  48.1529269  89.9172919
   4.5851525  48.5328170  89.3669952   5.3544336  48.7624595  90.6504866
  11.7303239  45.0199931  91.0375591  10.9766948  44.4507330  90.8819595
  11.8650780  44.9862596  91.9846226   5.4078888  46.1584861  85.6854812
   4.6308331  45.8196021  85.2409974   6.0870369  46.1637485  85.0109777
   3.2237450  48.9669217  88.5204505   2.7699777  48.1260127  88.5769695
   2.5931416  49.6030615  88.8579285   1.6670389  50.8045714  89.4554323
   1.9593363  51.3650771  88.7366689   2.1769009  51.0974275  90.2107482
   5.8067385  45.1728568  88.1477734   5.6685283  45.3630164  87.2198924
   5.4503604  45.9347951  88.6045785   1.8105498  45.7555753  81.6833473
   1.1934668  45.0302581  81.5866526   1.3421986  46.5165113  81.3400548
   4.5666952  42.7351103  88.8039961   5.0327404  43.5679095  88.7300264
   5.0174452  42.2696085  89.5085220   2.6343183  49.0794925  85.8026113
   2.9103027  48.9651519  86.7119987   1.7647682  48.6812409  85.7638286
   2.9084280  51.7080591  91.9666867   3.8330827  51.5023453  91.8291318
   2.7399583  51.4596992  92.8756208   2.6979596  52.2266259  87.3228958
   2.8716473  51.6612681  86.5702811   3.1908487  53.0267154  87.1408448
   8.5518987  44.9902682  88.9419258   8.9950133  44.2410007  88.5438381
   7.6745497  44.9812818  88.5592990   3.6854768  51.5433023  84.4225856
   4.3805673  52.1639716  84.6413171   4.0277919  50.6928374  84.6978234
   5.5846192  48.9932729  85.9513187   6.1097516  49.3320001  85.2262507
   5.4968544  48.0579744  85.7676322   8.0951852  46.4607920  91.3341705
   8.9298743  46.8997724  91.4979266   8.2310981  45.9846573  90.5149951
   0.9966897  51.9331925  84.4609532   1.9297570  51.8677487  84.6642408
   0.9090109  52.7688192  84.0024065   3.6254913  51.2497795  81.4213480
   3.5468545  50.9157659  82.3149238   4.4464580  51.7419563  81.4204952
  12.1409654  45.1775541  93.7695835  12.8713043  44.9160830  94.3303539
  11.5316600  44.4404263  93.8097903   2.0515652  38.8021116  86.9475438
   1.1641507  39.0870767  86.7295633   2.4669641  38.6414879  86.1002715
   2.0256675  44.3175652  87.1625728   1.9691877  44.7744203  86.3233361
   2.5785018  43.5566337  86.9848571   5.8361481  40.1065384  87.9875848
   5.5798416  39.7062020  88.8184056   5.2114349  40.8209178  87.8625987
  10.1473819  42.8461457  90.4947139   9.5873377  42.9154646  91.2678701
   9.5417323  42.6702442  89.7746636   3.1045563  49.0048320  83.0921918
   3.9391166  48.5729518  82.9099393   2.9429905  48.8330334  84.0198813
   2.7591455  45.5080433  84.4578258   2.7040258  45.3424705  83.5166702
   2.1337510  46.2156466  84.6140447  11.7329838  59.5217971  93.1877095
  12.3708248  59.4024718  92.4840435  11.6150680  60.4698815  93.2465047
   8.5419544  59.4745399  93.1238620   8.2038055  59.3586464  92.2359155
   9.4109312  59.0736564  93.1039626   4.4006360  61.3280876  89.1135511
   3.8371225  61.2370812  88.3451798   4.2858755  60.5080780  89.5938003
   9.9805918  64.9951843  84.4249976   9.3293898  65.5805924  84.0383989
  10.7750281  65.5258038  84.4845013   3.9061545  62.0840980  84.8237110
   4.6792421  61.5369967  84.6849986   4.2586944  62.9485230  85.0351571
   6.2427823  58.2433647  82.4555560   6.4953344  57.7215168  81.6939023
   5.3052382  58.0799792  82.5582243  11.2871106  57.2469425  90.2630303
  12.0734195  56.8288848  89.9120720  11.5509810  58.1515517  90.4311951
  11.4581183  62.6842275  84.9618960  10.8227016  62.7576902  85.6739864
  11.1278590  63.2735874  84.2838039  16.6879533  57.1844658  91.1663282
  17.4204705  56.6143875  91.4001111  15.9318889  56.7966259  91.6069787
   5.9624112  60.1461752  84.6579935   5.8460370  59.4706656  85.3261019
   6.0726372  59.6594126  83.8412088   8.3055653  59.6071900  88.3626624
   7.9413860  59.0802521  89.0739545   9.1622769  59.2170369  88.1893109
  14.2104954  50.8966232  95.6257890  13.8788278  51.7661643  95.4019105
  13.6150567  50.5802516  96.3051921   7.9461140  54.6361799  83.3587973
   8.1135542  55.5042036  83.7258444   7.7558309  54.7989081  82.4349262
  10.7036473  63.0978778  95.0253803  10.4037196  64.0003817  94.9169610
  10.3587533  62.8310961  95.8774956   4.1548955  59.5492575  91.0590507
   3.2299451  59.4168789  91.2668199   4.4033368  60.3286794  91.5560450
  14.1033617  55.6161318  92.7051240  13.1950494  55.5476727  92.4110001
  14.0521213  56.0933263  93.5333066   7.9250361  57.0919457  84.3434639
   7.8049986  57.5376508  85.1820120   7.2302949  57.4404774  83.7848177
  15.9695263  53.8177757  94.4829114  15.3269644  54.1110290  93.8368909
  15.4650192  53.7030677  95.2882311  13.6235427  57.5640930  85.1714973
  14.5353283  57.7968317  84.9962671  13.1145074  58.1477974  84.6090052
   8.2607265  56.9238165  96.1809823   9.1068460  57.3477578  96.3244472
   8.2005902  56.2671789  96.8748386  12.2305009  62.5466748  92.5628555
  11.6013872  62.7112463  91.8604623  11.8430671  62.9608358  93.3339519
  16.1094241  63.4821186  89.9172919  15.4245279  63.8620088  89.3669952
  16.1938090  64.0916513  90.6504866  11.4106710  54.5842533  97.8390997
  11.1667642  55.3384593  97.3025272  11.6866640  54.9627881  98.6738244
  13.3645173  61.1281145  96.5168262  13.5762068  61.7712905  95.8402643
  13.3174921  60.2943462  96.0490192  10.9671402  53.7398966  93.4204834
  10.1055881  54.0380219  93.7121572  10.9933836  53.9569365  92.4885867
   7.7832971  62.2841156  89.8278640   8.2471317  62.5628859  89.0383262
   7.5189769  61.3824601  89.6451731   6.7201857  58.4064309  86.6368205
   7.4225901  58.8585353  87.1042131   6.3882486  57.7648128  87.2648098
  14.4791001  64.0053101  94.6890619  15.3008444  63.6033288  94.4073301
  14.4753404  63.9021335  95.6406735   2.4141937  57.0292441  88.8968815
   1.6173100  57.1411135  89.4152311   2.1867529  57.3679093  88.0309706
  22.5696994  60.3491849  91.0375591  21.8160702  59.7799247  90.8819595
  22.7044535  60.3154514  91.9846226   7.9595622  65.2205251  86.7130310
   7.8241297  66.0656787  87.1415158   8.5005434  65.4224529  85.9496244
   1.4125019  62.7380690  87.2858235   1.9249540  63.5323940  87.4363800
   2.0647732  62.0406980  87.2191837  11.3088085  48.7435813  95.2429204
  10.9652355  49.6337455  95.1668314  11.6767048  48.5537471  94.3798789
  11.2738368  58.7344424  83.7501639  10.7584992  59.5049029  83.9890026
  11.0015677  58.0609561  84.3734700   8.8585479  53.5794125  88.8086877
   8.0027075  53.1900976  88.6292516   9.2712431  53.6586086  87.9486663
  10.3884626  51.1140469  93.2078437   9.8849421  51.0770604  92.3946242
  10.6815233  52.0233211  93.2675094   6.6327512  51.1979198  92.2144619
   7.4980508  51.0022007  91.8550508   6.7005021  50.9689550  93.1413976
  16.2472642  61.4876779  85.6854812  15.4702085  61.1487939  85.2409974
  16.9264123  61.4929402  85.0109777  11.0624671  56.6071517  85.5761420
  10.7574807  56.9217666  86.4271563  12.0155113  56.6852936  85.6188753
   9.5071103  62.7661740  87.2254374   8.9792465  62.0314499  86.9127611
   9.0058606  63.5436416  86.9794342  14.4863949  60.9610760  92.3421420
  13.8287624  61.6510022  92.4301549  15.2904348  61.3507192  92.6855407
   4.2389831  53.4281406  89.5860986   4.8133583  53.2056588  88.8534179
   4.8260813  53.4970101  90.3389587  13.2969408  59.3155133  90.3925362
  13.8101290  59.9485125  90.8947072  13.9470632  58.7156329  90.0268722
   4.5659418  55.4585867  83.6056871   3.7296730  55.7960554  83.9266146
   4.4264187  55.3234847  82.6684008   6.5412498  50.3022655  88.3136055
   5.8876911  49.9871672  87.6892670   6.4992973  49.6798396  89.0395878
   7.6523703  60.5841950  80.2289347   6.7450765  60.3531204  80.4280496
   8.1494735  59.7879569  80.4163329  10.5591782  69.2939457  83.1486033
   9.8853481  69.5971154  83.7570991  10.9457604  70.0968538  82.7991490
   9.7750239  56.7904589  92.6383703   8.8572800  57.0119536  92.4805391
  10.1910382  56.8650899  91.7795410  10.5585287  58.1896004  87.7686383
  11.3057106  58.7017401  87.4593505  10.8276876  57.8680057  88.6290776
   8.8311937  60.6854545  84.7513337   7.9223156  60.4013578  84.8485807
   8.8607021  61.1053624  83.8916644  14.0631204  64.2961135  88.5204505
  13.6093531  63.4552044  88.5769695  13.4325171  64.9322533  88.8579285
  13.0064124  55.2253121  89.7505172  12.2686881  54.7130507  90.0815415
  13.2590897  54.7853502  88.9388449  12.5064143  66.1337631  89.4554323
  12.7987118  66.6942688  88.7366689  13.0162764  66.4266192  90.2107482
  13.1075751  48.0029373  90.3446941  13.4134628  47.1426736  90.0572857
  13.8328356  48.5946993  90.1445935   7.3796831  58.2983166  90.8523133
   7.4345441  57.3457002  90.7765609   6.5688033  58.4542605  91.3364431
   8.5288025  62.2263289  82.0901416   8.0907454  61.5099148  81.6307053
   9.2698465  62.4539403  81.5286507   5.3189191  56.9160225  88.6113511
   4.5057056  57.2154396  89.0178704   5.8148185  56.5215914  89.3287994
   7.4697769  66.9117982  90.5447776   7.4273947  67.1378829  89.6156308
   8.3860467  66.6781357  90.6933577  10.9163402  57.3802050  97.4428405
  11.2712790  57.6073523  98.3022871  11.5635534  57.7120427  96.8205661
  16.6461139  60.5020486  88.1477734  16.5079038  60.6922082  87.2198924
  16.2897358  61.2639869  88.6045785   4.8103265  54.4878581  94.2274746
   5.4502645  54.3467340  93.5297710   3.9780796  54.2013094  93.8513348
  16.6730519  62.5697013  93.1589006  17.1067026  62.4772302  94.0072060
  17.3862100  62.5454513  92.5209022   5.5863569  63.7881011  90.3409739
   6.3804168  63.2931331  90.1392314   4.8755262  63.2598874  89.9777444
   1.8946333  57.9324093  86.4169491   0.9643921  57.8708549  86.6339454
   1.9903805  57.4100046  85.6206133   1.8131882  54.4578906  89.0047733
   2.0738699  55.3724239  88.8956894   2.6349054  53.9903348  89.1544346
  17.5346068  62.6120713  95.6921891  17.7281959  63.5166524  95.9381166
  17.4346687  62.1528132  96.5260476   9.3646514  60.3359369  96.2509038
  10.2938574  60.4870528  96.0778006   8.9437544  60.4243390  95.3957685
   8.7582997  69.4619130  85.3633112   8.9334753  68.9907173  86.1778735
   8.0715785  70.0884896  85.5914373   9.7140061  63.7391636  91.4096414
   9.3789893  63.6992406  92.3054064   9.2144006  63.0736352  90.9366824
  12.6499252  61.0847670  81.6833473  12.0328423  60.3594498  81.5866526
  12.1815741  61.8457031  81.3400548   4.4397798  55.3033095  80.8054778
   3.5627264  55.1821895  80.4417024   4.9155551  54.5119173  80.5533666
  14.3070791  63.7586163  97.5753233  13.4197570  63.4212084  97.6979632
  14.8769342  63.0269194  97.8121999   7.6261724  67.6559385  88.0517298
   6.8429246  68.1981065  88.1455523   8.3254469  68.1733365  88.4511539
  10.9358374  53.4654014  90.6951504  11.4327074  52.7123977  90.3752574
  10.1645356  53.5018331  90.1294713  18.7888132  59.1694380  92.3369795
  18.7778008  60.0519095  91.9663728  17.9205511  58.8165931  92.1424332
  12.0188155  62.2225702  88.2689927  11.0844434  62.3427164  88.0994631
  12.1964823  61.3198168  88.0049937   7.5193343  55.6071397  90.4223188
   7.1491130  55.0542438  91.1104094   8.0152435  55.0029531  89.8698188
  15.4060706  58.0643021  88.8039961  15.8721158  58.8971013  88.7300264
  15.8568207  57.5988003  89.5085220  13.4736937  64.4086842  85.8026113
  13.7496781  64.2943437  86.7119987  12.6041436  64.0104327  85.7638286
  13.3777369  50.4323608  92.8430862  12.4640449  50.6627835  93.0113069
  13.8070470  50.5162052  93.6944895  13.1483827  58.6213500  95.3430756
  12.4955278  58.8689407  94.6883209  13.5264207  57.8077638  95.0093234
  10.1091001  68.6573193  89.4458927  10.2913396  67.8394849  89.9086679
  10.9323987  68.8740885  89.0083817  10.4433167  67.5841378  86.7073975
  10.9720933  67.0733833  86.0944137  10.7061386  67.2683908  87.5719508
  11.0762571  68.6182214  93.0518092  10.9513710  67.8171954  92.5429037
  11.7341662  69.1128407  92.5632062   2.6970739  54.9730946  92.2295232
   1.9757325  55.5866914  92.0902705   3.4863995  55.5088711  92.1511878
  13.1397479  66.4191234  94.6797642  12.1927815  66.2996585  94.6075968
  13.4880252  65.5313732  94.7623903   0.8964333  54.5789048  86.3707008
   0.5677040  53.6986426  86.1882114   1.2503704  54.5236716  87.2583398
  10.1443912  66.2143950  90.8801994   9.9968875  65.2860658  91.0609564
  10.9697406  66.2364041  90.3959069   4.0106157  54.8662017  86.7382486
   4.3502229  55.3947939  86.0161094   4.4578277  55.2042423  87.5141053
  13.7478034  67.0372509  91.9666867  14.6724582  66.8315370  91.8291318
  13.5793338  66.7888910  92.8756208   6.7049597  53.2499068  96.1885554
   6.3646418  52.4506881  96.5906234   5.9988604  53.5500779  95.6162387
   7.3566069  50.3348380  94.6412877   8.1792139  49.8608859  94.5191768
   7.6004133  51.1138864  95.1411563   5.9974304  53.3636639  84.9375779
   6.7182666  53.7417892  84.4339496   5.3739608  54.0825516  85.0410757
  10.1405427  54.0681788  85.8734111  10.3569041  54.9506426  85.5722939
   9.6599494  53.6768001  85.1439753   4.8804648  57.0267501  92.4504856
   4.7349229  57.3407804  93.3429137   4.4029852  57.6452401  91.8975754
   6.7401031  54.0170049  92.4985745   6.7262600  53.1211142  92.1618043
   7.4573459  54.0240713  93.1324031   8.5927162  54.4507389  94.5438873
   8.3344939  55.3724460  94.5423203   8.0612202  54.0537824  95.2339337
  13.5373350  67.5558176  87.3228958  13.7110228  66.9904599  86.5702811
  14.0302242  68.3559071  87.1408448   6.1437927  52.8984429  87.7673315
   6.2653838  51.9701076  87.9664203   5.8539969  52.9123115  86.8551631
   9.0129117  50.5839340  90.9040035   9.0350814  50.6478673  89.9492015
   9.4297176  49.7443848  91.0980541  19.3912742  60.3194599  88.9419258
  19.8343888  59.5701925  88.5438381  18.5139252  60.3104736  88.5592990
  14.5248523  66.8724941  84.4225856  15.2199428  67.4931634  84.6413171
  14.8671673  66.0220292  84.6978234  16.4239946  64.3224646  85.9513187
  16.9491270  64.6611919  85.2262507  16.3362299  63.3871662  85.7676322
  16.2331727  61.8050016  98.5697114  16.2829732  61.6400024  99.5112636
  16.1245650  60.9377275  98.1794994   5.1167986  64.4838562  85.8589203
   5.2656106  65.1674026  85.2055875   5.9234429  64.4643652  86.3738658
  13.5235490  57.7880944  99.8856420  14.4245352  57.6487409  99.5940418
  13.5983464  57.9535399 100.8254598  17.7349924  64.2246958  98.8139135
  17.4434732  64.5876938  99.6502596  17.1222055  63.5113966  98.6352467
  18.9345606  61.7899838  91.3341705  19.7692498  62.2289642  91.4979266
  19.0704735  61.3138491  90.5149951  15.9837112  59.3479573  97.2819193
  16.4591234  59.5407219  96.4738045  15.0602678  59.4038758  97.0362577
   2.8720619  60.5103740  86.8650272   2.6266661  59.6066070  87.0630482
   3.0416533  60.5120890  85.9229750  10.5617329  51.3827416  96.2475027
  11.0799273  52.1188443  95.9221516  10.2072461  51.6891409  97.0821786
   2.1416266  56.2432097  84.3636433   1.4485511  56.3176452  83.7076469
   1.8968018  55.4792441  84.8857950  10.8129923  47.8027699  91.7675924
  11.0931677  47.1350888  92.3936350  11.5980530  47.9956794  91.2550588
   8.6163391  66.9786692  83.3300950   8.0437358  67.5976880  82.8771422
   9.1896185  67.5286054  83.8640872  14.6838781  56.2245333  95.5147499
  15.6356204  56.3243430  95.5359723  14.5142232  55.4323601  96.0245583
  12.7053161  53.3100916  95.7006900  12.1103093  53.5905929  95.0053388
  12.4202857  53.7994817  96.4723641  11.8360651  67.2623843  84.4609532
  12.7691324  67.1969404  84.6642408  11.7483864  68.0980109  84.0024065
  14.4648668  66.5789713  81.4213480  14.3862299  66.2449577  82.3149238
  15.2858335  67.0711481  81.4204952  17.1626859  59.4451452  94.6289798
  17.1303179  58.5067453  94.8149482  17.7727483  59.5235489  93.8955623
   9.0010190  58.3147505  80.6717003   9.9469295  58.1853713  80.7405421
   8.6224435  57.5762167  81.1486431  17.3121347  56.2362496  94.6748082
  16.7960396  55.4520952  94.4878011  18.1961296  55.9081212  94.8394601
  14.9732074  49.9803511  90.6343894  14.7756896  49.6718599  91.5187226
  15.5831780  50.7065150  90.7641824  22.9803409  60.5067459  93.7695835
  23.7106797  60.2452747  94.3303539  22.3710354  59.7696181  93.8097903
  21.0618706  58.6475322  94.3670286  20.3351870  58.5131287  93.7586778
  20.6465993  58.9552150  95.1727005   7.1853107  56.2397482  80.6071888
   6.2784562  55.9430594  80.6834601   7.4629088  55.9427300  79.7406174
   8.8015173  50.7834371  86.7616129   7.9915901  50.4381456  87.1371375
   9.4899590  50.4741915  87.3503741  10.7305721  49.8612418  88.3840426
  11.2836760  50.2807872  89.0430449  10.9675807  48.9348166  88.4263382
   5.9551892  53.0984417  80.7483867   6.8171056  53.4239315  81.0079684
   6.1402236  52.3115913  80.2356933  14.1084528  51.9712943  87.8919090
  13.5283197  52.6297747  87.5097142  13.8420461  51.1490288  87.4806507
  12.5588094  51.3718001  90.0940410  13.0587873  51.4834536  89.2854729
  13.2023702  51.0679054  90.7341219  12.8909406  54.1313034  86.9475438
  12.0035261  54.4162684  86.7295633  13.3063395  53.9706797  86.1002715
  16.2423942  54.1559555  90.6629777  17.0184332  54.6456007  90.9354394
  15.5172076  54.5817609  91.1201647  18.6796501  54.8687174  91.7203718
  19.2740992  54.6282910  91.0097026  18.7523085  54.1494304  92.3477254
  12.0352620  63.8957708  81.0423458  12.7388470  64.1007711  81.6581114
  11.3115268  64.4634470  81.3072542  12.8650430  59.6467570  87.1625728
  12.8085631  60.1036121  86.3233361  13.4178772  58.8858254  86.9848571
  16.6755236  55.4357302  87.9875848  16.4192170  55.0353937  88.8184056
  16.0508104  56.1501095  87.8625987  20.9867574  58.1753375  90.4947139
  20.4267132  58.2446564  91.2678701  20.3811077  57.9994359  89.7746636
  13.9439317  64.3340238  83.0921918  14.7784921  63.9021436  82.9099393
  13.7823660  64.1622251  84.0198813  13.5985209  60.8372351  84.4578258
  13.5434013  60.6716622  83.5166702  12.9731264  61.5448384  84.6140447
   6.9081335  50.3380460  84.0363576   6.8960004  51.2822300  84.1931847
   7.8004757  50.1550605  83.7423037  10.7233454  46.9323237  88.2909513
   9.9565850  46.3781723  88.4366195  11.1344159  47.0045105  89.1523664
  22.5723592  74.8509889  93.1877095  23.2102002  74.7316636  92.4840435
  22.4544435  75.7990733  93.2465047  19.3813298  74.8037317  93.1238620
  19.0431810  74.6878381  92.2359155  20.2503067  74.4028482  93.1039626
  15.2400114  76.6572793  89.1135511  14.6764979  76.5662730  88.3451798
  15.1252509  75.8372698  89.5938003  20.8199673  80.3243761  84.4249976
  20.1687653  80.9097841  84.0383989  21.6144036  80.8549956  84.4845013
  14.7455300  77.4132898  84.8237110  15.5186176  76.8661885  84.6849986
  15.0980699  78.2777147  85.0351571  17.0821578  73.5725564  82.4555560
  17.3347098  73.0507085  81.6939023  16.1446137  73.4091710  82.5582243
  22.1264861  72.5761343  90.2630303  22.9127950  72.1580766  89.9120720
  22.3903565  73.4807435  90.4311951  22.2974938  78.0134193  84.9618960
  21.6620771  78.0868819  85.6739864  21.9672344  78.6027792  84.2838039
  27.5273288  72.5136576  91.1663282  28.2598460  71.9435793  91.4001111
  26.7712643  72.1258176  91.6069787  16.8017866  75.4753670  84.6579935
  16.6854125  74.7998574  85.3261019  16.9120126  74.9886044  83.8412088
  19.1449407  74.9363817  88.3626624  18.7807615  74.4094438  89.0739545
  20.0016523  74.5462286  88.1893109  25.0498708  66.2258150  95.6257890
  24.7182033  67.0953561  95.4019105  24.4544321  65.9094434  96.3051921
  18.7854894  69.9653717  83.3587973  18.9529297  70.8333953  83.7258444
  18.5952063  70.1280999  82.4349262  21.5430228  78.4270696  95.0253803
  21.2430951  79.3295735  94.9169610  21.1981287  78.1602879  95.8774956
  14.9942709  74.8784493  91.0590507  14.0693206  74.7460707  91.2668199
  15.2427122  75.6578712  91.5560450  24.9427371  70.9453236  92.7051240
  24.0344249  70.8768644  92.4110001  24.8914967  71.4225181  93.5333066
  18.7644115  72.4211374  84.3434639  18.6443740  72.8668425  85.1820120
  18.0696704  72.7696692  83.7848177  26.8089018  69.1469674  94.4829114
  26.1663398  69.4402208  93.8368909  26.3043946  69.0322595  95.2882311
  24.4629181  72.8932848  85.1714973  25.3747038  73.1260234  84.9962671
  23.9538829  73.4769892  84.6090052  19.1001019  72.2530082  96.1809823
  19.9462214  72.6769496  96.3244472  19.0399657  71.5963707  96.8748386
  23.0698764  77.8758666  92.5628555  22.4407626  78.0404380  91.8604623
  22.6824426  78.2900276  93.3339519  26.9487996  78.8113104  89.9172919
  26.2639034  79.1912005  89.3669952  27.0331845  79.4208431  90.6504866
  22.2500464  69.9134451  97.8390997  22.0061396  70.6676511  97.3025272
  22.5260395  70.2919798  98.6738244  24.2038927  76.4573063  96.5168262
  24.4155822  77.1004823  95.8402643  24.1568676  75.6235380  96.0490192
  21.8065156  69.0690884  93.4204834  20.9449635  69.3672137  93.7121572
  21.8327591  69.2861282  92.4885867  18.6226726  77.6133074  89.8278640
  19.0865071  77.8920777  89.0383262  18.3583524  76.7116519  89.6451731
  17.5595612  73.7356227  86.6368205  18.2619655  74.1877270  87.1042131
  17.2276240  73.0940045  87.2648098  25.3184755  79.3345018  94.6890619
  26.1402199  78.9325206  94.4073301  25.3147158  79.2313253  95.6406735
  13.2535691  72.3584358  88.8968815  12.4566854  72.4703053  89.4152311
  13.0261283  72.6971011  88.0309706  33.4090748  75.6783767  91.0375591
  32.6554457  75.1091165  90.8819595  33.5438289  75.6446431  91.9846226
  18.7989376  80.5497169  86.7130310  18.6635051  81.3948705  87.1415158
  19.3399189  80.7516447  85.9496244  12.2518774  78.0672607  87.2858235
  12.7643294  78.8615857  87.4363800  12.9041487  77.3698898  87.2191837
  22.1481840  64.0727731  95.2429204  21.8046109  64.9629373  95.1668314
  22.5160802  63.8829389  94.3798789  22.1132123  74.0636342  83.7501639
  21.5978746  74.8340947  83.9890026  21.8409431  73.3901478  84.3734700
  19.6979234  68.9086043  88.8086877  18.8420830  68.5192893  88.6292516
  20.1106185  68.9878004  87.9486663  21.2278380  66.4432386  93.2078437
  20.7243176  66.4062521  92.3946242  21.5208987  67.3525129  93.2675094
  17.4721266  66.5271116  92.2144619  18.3374263  66.3313925  91.8550508
  17.5398775  66.2981468  93.1413976  27.0866397  76.8168697  85.6854812
  26.3095839  76.4779856  85.2409974  27.7657878  76.8221320  85.0109777
  21.9018426  71.9363434  85.5761420  21.5968561  72.2509583  86.4271563
  22.8548868  72.0144854  85.6188753  20.3464858  78.0953658  87.2254374
  19.8186219  77.3606417  86.9127611  19.8452360  78.8728334  86.9794342
  25.3257704  76.2902678  92.3421420  24.6681378  76.9801939  92.4301549
  26.1298103  76.6799110  92.6855407  15.0783585  68.7573324  89.5860986
  15.6527337  68.5348505  88.8534179  15.6654568  68.8262018  90.3389587
  24.1363162  74.6447051  90.3925362  24.6495044  75.2777043  90.8947072
  24.7864386  74.0448246  90.0268722  15.4053172  70.7877785  83.6056871
  14.5690485  71.1252471  83.9266146  15.2657942  70.6526765  82.6684008
  17.3806253  65.6314573  88.3136055  16.7270665  65.3163590  87.6892670
  17.3386727  65.0090313  89.0395878  18.4917458  75.9133868  80.2289347
  17.5844520  75.6823121  80.4280496  18.9888490  75.1171487  80.4163329
  21.3985537  84.6231375  83.1486033  20.7247235  84.9263072  83.7570991
  21.7851359  85.4260455  82.7991490  20.6143993  72.1196506  92.6383703
  19.6966555  72.3411453  92.4805391  21.0304137  72.1942817  91.7795410
  21.3979041  73.5187922  87.7686383  22.1450860  74.0309319  87.4593505
  21.6670631  73.1971975  88.6290776  19.6705691  76.0146463  84.7513337
  18.7616910  75.7305495  84.8485807  19.7000775  76.4345541  83.8916644
  24.9024959  79.6253052  88.5204505  24.4487286  78.7843962  88.5769695
  24.2718925  80.2614451  88.8579285  23.8457878  70.5545038  89.7505172
  23.1080635  70.0422424  90.0815415  24.0984652  70.1145420  88.9388449
  23.3457898  81.4629549  89.4554323  23.6380872  82.0234606  88.7366689
  23.8556518  81.7558110  90.2107482  23.9469506  63.3321290  90.3446941
  24.2528382  62.4718654  90.0572857  24.6722110  63.9238910  90.1445935
  18.2190585  73.6275083  90.8523133  18.2739195  72.6748920  90.7765609
  17.4081787  73.7834522  91.3364431  19.3681779  77.5555206  82.0901416
  18.9301209  76.8391065  81.6307053  20.1092220  77.7831321  81.5286507
  16.1582945  72.2452143  88.6113511  15.3450811  72.5446314  89.0178704
  16.6541939  71.8507832  89.3287994  18.3091523  82.2409900  90.5447776
  18.2667702  82.4670746  89.6156308  19.2254222  82.0073275  90.6933577
  21.7557157  72.7093968  97.4428405  22.1106545  72.9365441  98.3022871
  22.4029288  73.0412344  96.8205661  27.4854894  75.8312403  88.1477734
  27.3472792  76.0213999  87.2198924  27.1291113  76.5931786  88.6045785
  15.6497020  69.8170499  94.2274746  16.2896399  69.6759258  93.5297710
  14.8174550  69.5305012  93.8513348  27.5124273  77.8988930  93.1589006
  27.9460780  77.8064219  94.0072060  28.2255854  77.8746431  92.5209022
  16.4257324  79.1172929  90.3409739  17.2197922  78.6223249  90.1392314
  15.7149016  78.5890792  89.9777444  12.7340087  73.2616011  86.4169491
  11.8037675  73.2000466  86.6339454  12.8297559  72.7391963  85.6206133
  12.6525636  69.7870824  89.0047733  12.9132454  70.7016157  88.8956894
  13.4742809  69.3195266  89.1544346  28.3739823  77.9412631  95.6921891
  28.5675713  78.8458442  95.9381166  28.2740441  77.4820050  96.5260476
  20.0276134  67.8270522  98.1912219  19.3804049  68.5260471  98.0976695
  20.7977149  68.2606666  98.5588467  20.2040268  75.6651287  96.2509038
  21.1332328  75.8162446  96.0778006  19.7831298  75.7535307  95.3957685
  19.5976752  84.7911047  85.3633112  19.7728508  84.3199091  86.1778735
  18.9109540  85.4176814  85.5914373  20.5533815  79.0683554  91.4096414
  20.2183648  79.0284324  92.3054064  20.0537761  78.4028270  90.9366824
  15.2791553  70.6325012  80.8054778  14.4021019  70.5113813  80.4417024
  15.7549306  69.8411091  80.5533666  25.1464546  79.0878080  97.5753233
  24.2591324  78.7504002  97.6979632  25.7163097  78.3561112  97.8121999
  18.4655479  82.9851303  88.0517298  17.6823000  83.5272983  88.1455523
  19.1648224  83.5025282  88.4511539  21.7752129  68.7945932  90.6951504
  22.2720828  68.0415894  90.3752574  21.0039110  68.8310249  90.1294713
  29.6281886  74.4986298  92.3369795  29.6171762  75.3811013  91.9663728
  28.7599266  74.1457848  92.1424332  22.8581909  77.5517619  88.2689927
  21.9238188  77.6719082  88.0994631  23.0358578  76.6490086  88.0049937
  18.3587097  70.9363315  90.4223188  17.9884885  70.3834355  91.1104094
  18.8546190  70.3321449  89.8698188  26.2454461  73.3934939  88.8039961
  26.7114913  74.2262930  88.7300264  26.6961961  72.9279920  89.5085220
  24.3130692  79.7378760  85.8026113  24.5890536  79.6235354  86.7119987
  23.4435191  79.3396245  85.7638286  24.2171123  65.7615526  92.8430862
  23.3034203  65.9919752  93.0113069  24.6464225  65.8453970  93.6944895
  23.9877582  73.9505418  95.3430756  23.3349032  74.1981325  94.6883209
  24.3657962  73.1369556  95.0093234  20.9484756  83.9865111  89.4458927
  21.1307150  83.1686767  89.9086679  21.7717742  84.2032803  89.0083817
  21.2826921  82.9133296  86.7073975  21.8114688  82.4025750  86.0944137
  21.5455141  82.5975826  87.5719508  10.0070246  72.2266868  86.2467683
  10.3023687  71.3177546  86.1934737   9.1058282  72.2054607  85.9248686
  21.9156325  83.9474132  93.0518092  21.7907465  83.1463871  92.5429037
  22.5735416  84.4420325  92.5632062  13.5364493  70.3022864  92.2295232
  12.8151079  70.9158832  92.0902705  14.3257749  70.8380629  92.1511878
  23.9791234  81.7483152  94.6797642  23.0321569  81.6288503  94.6075968
  24.3274007  80.8605650  94.7623903  11.7358088  69.9080965  86.3707008
  11.4070794  69.0278344  86.1882114  12.0897459  69.8528634  87.2583398
  20.9837667  81.5435868  90.8801994  20.8362629  80.6152575  91.0609564
  21.8091160  81.5655959  90.3959069  14.8499911  70.1953935  86.7382486
  15.1895984  70.7239856  86.0161094  15.2972032  70.5334341  87.5141053
  24.5871789  82.3664427  91.9666867  25.5118336  82.1607288  91.8291318
  24.4187092  82.1180828  92.8756208  17.5443352  68.5790986  96.1885554
  17.2040172  67.7798799  96.5906234  16.8382358  68.8792697  95.6162387
  18.1959824  65.6640298  94.6412877  19.0185893  65.1900776  94.5191768
  18.4397887  66.4430782  95.1411563  16.8368058  68.6928557  84.9375779
  17.5576421  69.0709809  84.4339496  16.2133362  69.4117433  85.0410757
  20.9799181  69.3973706  85.8734111  21.1962796  70.2798343  85.5722939
  20.4993248  69.0059919  85.1439753  15.7198403  72.3559419  92.4504856
  15.5742983  72.6699722  93.3429137  15.2423606  72.9744319  91.8975754
  17.5794785  69.3461967  92.4985745  17.5656354  68.4503060  92.1618043
  18.2967214  69.3532631  93.1324031  19.4320916  69.7799307  94.5438873
  19.1738694  70.7016378  94.5423203  18.9005957  69.3829742  95.2339337
  24.3767105  82.8850094  87.3228958  24.5503982  82.3196517  86.5702811
  24.8695996  83.6850989  87.1408448  16.9831681  68.2276347  87.7673315
  17.1047593  67.2992993  87.9664203  16.6933724  68.2415033  86.8551631
  19.8522872  65.9131257  90.9040035  19.8744569  65.9770591  89.9492015
  20.2690931  65.0735766  91.0980541  30.2306496  75.6486517  88.9419258
  30.6737642  74.8993842  88.5438381  29.3533006  75.6396653  88.5592990
  25.3642277  82.2016859  84.4225856  26.0593182  82.8223551  84.6413171
  25.7065428  81.3512210  84.6978234  27.2633701  79.6516564  85.9513187
  27.7885025  79.9903837  85.2262507  27.1756053  78.7163579  85.7676322
  27.0725482  77.1341934  98.5697114  27.1223487  76.9691941  99.5112636
  26.9639405  76.2669193  98.1794994  15.9561740  79.8130480  85.8589203
  16.1049861  80.4965944  85.2055875  16.7628184  79.7935570  86.3738658
  24.3629244  73.1172862  99.8856420  25.2639107  72.9779327  99.5940418
  24.4377219  73.2827317 100.8254598  28.5743678  79.5538876  98.8139135
  28.2828487  79.9168856  99.6502596  27.9615810  78.8405884  98.6352467
  29.7739361  77.1191755  91.3341705  30.6086252  77.5581559  91.4979266
  29.9098490  76.6430409  90.5149951  26.8230867  74.6771490  97.2819193
  27.2984988  74.8699136  96.4738045  25.8996432  74.7330676  97.0362577
  13.7114373  75.8395657  86.8650272  13.4660415  74.9357987  87.0630482
  13.8810288  75.8412808  85.9229750  21.4011083  66.7119334  96.2475027
  21.9193027  67.4480361  95.9221516  21.0466216  67.0183327  97.0821786
  12.9810021  71.5724015  84.3636433  12.2879266  71.6468370  83.7076469
  12.7361773  70.8084359  84.8857950  21.6523677  63.1319616  91.7675924
  21.9325431  62.4642805  92.3936350  22.4374284  63.3248712  91.2550588
  19.4557146  82.3078610  83.3300950  18.8831113  82.9268797  82.8771422
  20.0289940  82.8577972  83.8640872  25.5232536  71.5537250  95.5147499
  26.4749959  71.6535348  95.5359723  25.3535986  70.7615519  96.0245583
  23.5446915  68.6392833  95.7006900  22.9496847  68.9197846  95.0053388
  23.2596612  69.1286734  96.4723641  22.6754406  82.5915760  84.4609532
  23.6085079  82.5261322  84.6642408  22.5877618  83.4272027  84.0024065
  25.3042422  81.9081631  81.4213480  25.2256054  81.5741494  82.3149238
  26.1252089  82.4003399  81.4204952  28.0020613  74.7743370  94.6289798
  27.9696934  73.8359371  94.8149482  28.6121237  74.8527407  93.8955623
  19.8403944  73.6439423  80.6717003  20.7863049  73.5145631  80.7405421
  19.4618189  72.9054085  81.1486431  28.1515102  71.5654413  94.6748082
  27.6354151  70.7812870  94.4878011  29.0355050  71.2373130  94.8394601
  25.8125829  65.3095429  90.6343894  25.6150650  65.0010517  91.5187226
  26.4225534  66.0357068  90.7641824  33.8197163  75.8359377  93.7695835
  34.5500552  75.5744665  94.3303539  33.2104109  75.0988099  93.8097903
  31.9012460  73.9767239  94.3670286  31.1745624  73.8423204  93.7586778
  31.4859747  74.2844068  95.1727005  18.0246861  71.5689399  80.6071888
  17.1178317  71.2722512  80.6834601  18.3022843  71.2719217  79.7406174
  19.6408927  66.1126289  86.7616129  18.8309656  65.7673374  87.1371375
  20.3293344  65.8033833  87.3503741  21.5699476  65.1904336  88.3840426
  22.1230514  65.6099789  89.0430449  21.8069562  64.2640084  88.4263382
  24.9478283  67.3004861  87.8919090  24.3676952  67.9589665  87.5097142
  24.6814215  66.4782206  87.4806507  23.3981849  66.7009919  90.0940410
  23.8981627  66.8126453  89.2854729  24.0417457  66.3970972  90.7341219
  23.7303161  69.4604951  86.9475438  22.8429016  69.7454602  86.7295633
  24.1457150  69.2998715  86.1002715  27.0817697  69.4851472  90.6629777
  27.8578087  69.9747925  90.9354394  26.3565831  69.9109527  91.1201647
  29.5190255  70.1979092  91.7203718  30.1134746  69.9574828  91.0097026
  29.5916839  69.4786222  92.3477254  23.7044184  74.9759487  87.1625728
  23.6479386  75.4328039  86.3233361  24.2572527  74.2150172  86.9848571
  27.5148990  70.7649219  87.9875848  27.2585925  70.3645855  88.8184056
  26.8901858  71.4793013  87.8625987  31.8261328  73.5045292  90.4947139
  31.2660886  73.5738482  91.2678701  31.2204831  73.3286277  89.7746636
  24.7833071  79.6632155  83.0921918  25.6178675  79.2313354  82.9099393
  24.6217414  79.4914169  84.0198813  24.4378964  76.1664269  84.4578258
  24.3827767  76.0008540  83.5166702  23.8125019  76.8740301  84.6140447
  17.7475089  65.6672378  84.0363576  17.7353759  66.6114217  84.1931847
  18.6398511  65.4842523  83.7423037  21.5627209  62.2615154  88.2909513
  20.7959604  61.7073641  88.4366195  21.9737914  62.3337023  89.1523664
  33.4117347  90.1801806  93.1877095  34.0495757  90.0608554  92.4840435
  33.2938189  91.1282650  93.2465047  30.2207053  90.1329234  93.1238620
  29.8825564  90.0170299  92.2359155  31.0896821  89.7320400  93.1039626
  26.0793869  91.9864711  89.1135511  25.5158734  91.8954648  88.3451798
  25.9646264  91.1664615  89.5938003  31.6593427  95.6535679  84.4249976
  31.0081407  96.2389759  84.0383989  32.4537790  96.1841873  84.4845013
  25.5849054  92.7424816  84.8237110  26.3579930  92.1953803  84.6849986
  25.9374453  93.6069065  85.0351571  27.9215332  88.9017482  82.4555560
  28.1740853  88.3799003  81.6939023  26.9839891  88.7383627  82.5582243
  32.9658615  87.9053260  90.2630303  33.7521704  87.4872683  89.9120720
  33.2297319  88.8099352  90.4311951  33.1368692  93.3426111  84.9618960
  32.5014525  93.4160737  85.6739864  32.8066099  93.9319709  84.2838039
  38.3667042  87.8428493  91.1663282  39.0992214  87.2727710  91.4001111
  37.6106398  87.4550094  91.6069787  27.6411621  90.8045588  84.6579935
  27.5247879  90.1290491  85.3261019  27.7513881  90.3177962  83.8412088
  29.9843162  90.2655735  88.3626624  29.6201369  89.7386356  89.0739545
  30.8410278  89.8754204  88.1893109  35.8892463  81.5550068  95.6257890
  35.5575787  82.4245478  95.4019105  35.2938076  81.2386352  96.3051921
  29.6248649  85.2945635  83.3587973  29.7923051  86.1625871  83.7258444
  29.4345818  85.4572916  82.4349262  32.3823982  93.7562614  95.0253803
  32.0824705  94.6587652  94.9169610  32.0375042  93.4894797  95.8774956
  25.8336464  90.2076410  91.0590507  24.9086960  90.0752624  91.2668199
  26.0820877  90.9870630  91.5560450  35.7821126  86.2745154  92.7051240
  34.8738003  86.2060562  92.4110001  35.7308722  86.7517099  93.5333066
  29.6037870  87.7503292  84.3434639  29.4837495  88.1960343  85.1820120
  28.9090458  88.0988610  83.7848177  37.6482772  84.4761592  94.4829114
  37.0057153  84.7694125  93.8368909  37.1437701  84.3614512  95.2882311
  35.3022936  88.2224765  85.1714973  36.2140792  88.4552152  84.9962671
  34.7932583  88.8061810  84.6090052  29.9394774  87.5822000  96.1809823
  30.7855969  88.0061413  96.3244472  29.8793411  86.9255624  96.8748386
  33.9092518  93.2050584  92.5628555  33.2801381  93.3696298  91.8604623
  33.5218180  93.6192193  93.3339519  37.7881750  94.1405022  89.9172919
  37.1032788  94.5203923  89.3669952  37.8725599  94.7500348  90.6504866
  33.0894219  85.2426368  97.8390997  32.8455151  85.9968429  97.3025272
  33.3654149  85.6211716  98.6738244  35.0432682  91.7864981  96.5168262
  35.2549577  92.4296741  95.8402643  34.9962430  90.9527297  96.0490192
  32.6458911  84.3982801  93.4204834  31.7843390  84.6964055  93.7121572
  32.6721345  84.6153200  92.4885867  29.4620480  92.9424992  89.8278640
  29.9258826  93.2212695  89.0383262  29.1977278  92.0408436  89.6451731
  28.3989366  89.0648144  86.6368205  29.1013410  89.5169188  87.1042131
  28.0669995  88.4231963  87.2648098  36.1578510  94.6636936  94.6890619
  36.9795953  94.2617123  94.4073301  36.1540913  94.5605170  95.6406735
  24.0929446  87.6876276  88.8968815  23.2960609  87.7994970  89.4152311
  23.8655038  88.0262928  88.0309706  44.2484503  91.0075685  91.0375591
  43.4948211  90.4383083  90.8819595  44.3832044  90.9738349  91.9846226
  29.6383131  95.8789087  86.7130310  29.5028806  96.7240623  87.1415158
  30.1792943  96.0808364  85.9496244  23.0912528  93.3964525  87.2858235
  23.6037049  94.1907775  87.4363800  23.7435241  92.6990815  87.2191837
  32.9875594  79.4019649  95.2429204  32.6439864  80.2921290  95.1668314
  33.3554557  79.2121306  94.3798789  32.9525877  89.3928260  83.7501639
  32.4372501  90.1632864  83.9890026  32.6803186  88.7193396  84.3734700
  30.5372988  84.2377961  88.8086877  29.6814584  83.8484811  88.6292516
  30.9499940  84.3169921  87.9486663  32.0672135  81.7724304  93.2078437
  31.5636930  81.7354439  92.3946242  32.3602742  82.6817047  93.2675094
  28.3115021  81.8563034  92.2144619  29.1768017  81.6605842  91.8550508
  28.3792530  81.6273385  93.1413976  37.9260151  92.1460614  85.6854812
  37.1489594  91.8071774  85.2409974  38.6051632  92.1513238  85.0109777
  32.7412180  87.2655352  85.5761420  32.4362316  87.5801501  86.4271563
  33.6942622  87.3436772  85.6188753  31.1858612  93.4245575  87.2254374
  30.6579974  92.6898335  86.9127611  30.6846115  94.2020252  86.9794342
  36.1651458  91.6194596  92.3421420  35.5075133  92.3093857  92.4301549
  36.9691857  92.0091028  92.6855407  25.9177340  84.0865242  89.5860986
  26.4921092  83.8640423  88.8534179  26.5048322  84.1553936  90.3389587
  34.9756917  89.9738968  90.3925362  35.4888799  90.6068960  90.8947072
  35.6258141  89.3740164  90.0268722  26.2446927  86.1169703  83.6056871
  25.4084239  86.4544389  83.9266146  26.1051696  85.9818682  82.6684008
  28.2200007  80.9606490  88.3136055  27.5664420  80.6455508  87.6892670
  28.1780482  80.3382231  89.0395878  29.3311212  91.2425785  80.2289347
  28.4238274  91.0115039  80.4280496  29.8282244  90.4463405  80.4163329
  31.4537748  87.4488424  92.6383703  30.5360309  87.6703371  92.4805391
  31.8697891  87.5234734  91.7795410  32.2372796  88.8479840  87.7686383
  32.9844614  89.3601237  87.4593505  32.5064385  88.5263892  88.6290776
  30.5099446  91.3438380  84.7513337  29.6010665  91.0597413  84.8485807
  30.5394530  91.7637459  83.8916644  35.7418713  94.9544970  88.5204505
  35.2881040  94.1135880  88.5769695  35.1112680  95.5906368  88.8579285
  34.6851633  85.8836956  89.7505172  33.9474389  85.3714342  90.0815415
  34.9378406  85.4437337  88.9388449  34.1851652  96.7921467  89.4554323
  34.4774627  97.3526524  88.7366689  34.6950273  97.0850028  90.2107482
  34.7863260  78.6613208  90.3446941  35.0922137  77.8010571  90.0572857
  35.5115865  79.2530828  90.1445935  29.0584340  88.9567001  90.8523133
  29.1132950  88.0040837  90.7765609  28.2475542  89.1126440  91.3364431
  30.2075534  92.8847124  82.0901416  29.7694963  92.1682983  81.6307053
  30.9485974  93.1123239  81.5286507  26.9976700  87.5744061  88.6113511
  26.1844565  87.8738231  89.0178704  27.4935694  87.1799749  89.3287994
  29.1485278  97.5701818  90.5447776  29.1061456  97.7962664  89.6156308
  30.0647976  97.3365192  90.6933577  32.5950911  88.0385885  97.4428405
  32.9500299  88.2657358  98.3022871  33.2423043  88.3704262  96.8205661
  38.3248648  91.1604321  88.1477734  38.1866547  91.3505917  87.2198924
  37.9684867  91.9223704  88.6045785  26.4890774  85.1462416  94.2274746
  27.1290154  85.0051175  93.5297710  25.6568305  84.8596930  93.8513348
  38.3518028  93.2280848  93.1589006  38.7854535  93.1356137  94.0072060
  39.0649609  93.2038349  92.5209022  27.2651078  94.4464847  90.3409739
  28.0591677  93.9515167  90.1392314  26.5542771  93.9182710  89.9777444
  23.5733842  88.5907928  86.4169491  22.6431430  88.5292384  86.6339454
  23.6691314  88.0683881  85.6206133  23.4919391  85.1162741  89.0047733
  23.7526208  86.0308074  88.8956894  24.3136563  84.6487184  89.1544346
  39.2133577  93.2704549  95.6921891  39.4069468  94.1750359  95.9381166
  39.1134196  92.8111968  96.5260476  30.8669888  83.1562439  98.1912219
  30.2197803  83.8552389  98.0976695  31.6370904  83.5898583  98.5588467
  31.0434023  90.9943204  96.2509038  31.9726083  91.1454364  96.0778006
  30.6225053  91.0827225  95.3957685  31.3927569  94.3975471  91.4096414
  31.0577402  94.3576241  92.3054064  30.8931515  93.7320187  90.9366824
  34.3286761  91.7431506  81.6833473  33.7115932  91.0178334  81.5866526
  33.8603250  92.5040866  81.3400548  26.1185307  85.9616930  80.8054778
  25.2414773  85.8405731  80.4417024  26.5943060  85.1703008  80.5533666
  32.6145883  84.1237850  90.6951504  33.1114583  83.3707812  90.3752574
  31.8432865  84.1602166  90.1294713  40.4675641  89.8278215  92.3369795
  40.4565517  90.7102931  91.9663728  39.5993020  89.4749766  92.1424332
  33.6975664  92.8809537  88.2689927  32.7631943  93.0010999  88.0994631
  33.8752332  91.9782004  88.0049937  29.1980852  86.2655233  90.4223188
  28.8278639  85.7126273  91.1104094  29.6939944  85.6613366  89.8698188
  37.0848215  88.7226856  88.8039961  37.5508667  89.5554848  88.7300264
  37.5355716  88.2571838  89.5085220  35.1524446  95.0670678  85.8026113
  35.4284290  94.9527272  86.7119987  34.2828945  94.6688162  85.7638286
  35.0564878  81.0907443  92.8430862  34.1427958  81.3211670  93.0113069
  35.4857979  81.1745887  93.6944895  34.8271336  89.2797335  95.3430756
  34.1742787  89.5273243  94.6883209  35.2051716  88.4661473  95.0093234
  31.7878510  99.3157028  89.4458927  31.9700905  98.4978684  89.9086679
  32.6111496  99.5324721  89.0083817  32.1220676  98.2425214  86.7073975
  32.6508442  97.7317668  86.0944137  32.3848895  97.9267744  87.5719508
  20.8464001  87.5558785  86.2467683  21.1417442  86.6469464  86.1934737
  19.9452037  87.5346525  85.9248686  32.7550080  99.2766049  93.0518092
  32.6301219  98.4755789  92.5429037  33.4129171  99.7712243  92.5632062
  24.3758248  85.6314782  92.2295232  23.6544834  86.2450750  92.0902705
  25.1651504  86.1672547  92.1511878  34.8184988  97.0775069  94.6797642
  33.8715324  96.9580421  94.6075968  35.1667761  96.1897567  94.7623903
  22.5751842  85.2372883  86.3707008  22.2464549  84.3570262  86.1882114
  22.9291213  85.1820552  87.2583398  31.8231421  96.8727786  90.8801994
  31.6756384  95.9444493  91.0609564  32.6484915  96.8947876  90.3959069
  25.6893666  85.5245853  86.7382486  26.0289738  86.0531774  86.0161094
  26.1365786  85.8626259  87.5141053  35.4265543  97.6956344  91.9666867
  36.3512091  97.4899206  91.8291318  35.2580847  97.4472745  92.8756208
  28.3837106  83.9082903  96.1885554  28.0433927  83.1090716  96.5906234
  27.6776113  84.2084614  95.6162387  29.0353578  80.9932216  94.6412877
  29.8579648  80.5192694  94.5191768  29.2791642  81.7722700  95.1411563
  27.6761813  84.0220474  84.9375779  28.3970175  84.4001727  84.4339496
  27.0527117  84.7409351  85.0410757  31.8192936  84.7265623  85.8734111
  32.0356550  85.6090261  85.5722939  31.3387003  84.3351837  85.1439753
  26.5592157  87.6851336  92.4504856  26.4136738  87.9991640  93.3429137
  26.0817361  88.3036237  91.8975754  28.4188540  84.6753884  92.4985745
  28.4050109  83.7794978  92.1618043  29.1360968  84.6824548  93.1324031
  30.2714671  85.1091225  94.5438873  30.0132448  86.0308295  94.5423203
  29.7399711  84.7121659  95.2339337  35.2160859  98.2142012  87.3228958
  35.3897737  97.6488434  86.5702811  35.7089751  99.0142907  87.1408448
  27.8225436  83.5568265  87.7673315  27.9441347  82.6284911  87.9664203
  27.5327478  83.5706951  86.8551631  30.6916626  81.2423175  90.9040035
  30.7138323  81.3062508  89.9492015  31.1084685  80.4027684  91.0980541
  41.0700251  90.9778435  88.9419258  41.5131397  90.2285760  88.5438381
  40.1926761  90.9688571  88.5592990  36.2036032  97.5308776  84.4225856
  36.8986937  98.1515469  84.6413171  36.5459182  96.6804127  84.6978234
  38.1027455  94.9808482  85.9513187  38.6278779  95.3195754  85.2262507
  38.0149808  94.0455497  85.7676322  26.7955495  95.1422397  85.8589203
  26.9443615  95.8257862  85.2055875  27.6021938  95.1227487  86.3738658
  35.2022999  88.4464780  99.8856420  36.1032861  88.3071245  99.5940418
  35.2770973  88.6119235 100.8254598  40.6133115  92.4483673  91.3341705
  41.4480007  92.8873477  91.4979266  40.7492244  91.9722326  90.5149951
  37.6624621  90.0063408  97.2819193  38.1378743  90.1991054  96.4738045
  36.7390187  90.0622594  97.0362577  24.5508128  91.1687575  86.8650272
  24.3054170  90.2649905  87.0630482  24.7204042  91.1704725  85.9229750
  32.2404838  82.0411251  96.2475027  32.7586782  82.7772278  95.9221516
  31.8859970  82.3475245  97.0821786  23.8203775  86.9015933  84.3636433
  23.1273020  86.9760288  83.7076469  23.5755527  86.1376276  84.8857950
  32.4917432  78.4611534  91.7675924  32.7719186  77.7934723  92.3936350
  33.2768039  78.6540630  91.2550588  30.2950900  97.6370528  83.3300950
  29.7224867  98.2560715  82.8771422  30.8683694  98.1869890  83.8640872
  36.3626290  86.8829168  95.5147499  37.3143713  86.9827266  95.5359723
  36.1929741  86.0907437  96.0245583  34.3840670  83.9684751  95.7006900
  33.7890602  84.2489764  95.0053388  34.0990366  84.4578652  96.4723641
  33.5148160  97.9207678  84.4609532  34.4478833  97.8553240  84.6642408
  33.4271373  98.7563945  84.0024065  36.1436177  97.2373548  81.4213480
  36.0649808  96.9033412  82.3149238  36.9645844  97.7295316  81.4204952
  38.8414368  90.1035288  94.6289798  38.8090688  89.1651288  94.8149482
  39.4514992  90.1819324  93.8955623  30.6797699  88.9731341  80.6717003
  31.6256804  88.8437549  80.7405421  30.3011944  88.2346003  81.1486431
  38.9908856  86.8946331  94.6748082  38.4747905  86.1104788  94.4878011
  39.8748805  86.5665048  94.8394601  36.6519583  80.6387347  90.6343894
  36.4544405  80.3302435  91.5187226  37.2619289  81.3648986  90.7641824
  44.6590918  91.1651294  93.7695835  45.3894306  90.9036583  94.3303539
  44.0497863  90.4280016  93.8097903  42.7406215  89.3059157  94.3670286
  42.0139379  89.1715122  93.7586778  42.3253502  89.6135986  95.1727005
  28.8640616  86.8981317  80.6071888  27.9572071  86.6014430  80.6834601
  29.1416597  86.6011135  79.7406174  30.4802682  81.4418207  86.7616129
  29.6703410  81.0965292  87.1371375  31.1687099  81.1325750  87.3503741
  32.4093230  80.5196254  88.3840426  32.9624269  80.9391707  89.0430449
  32.6463316  79.5932002  88.4263382  27.6339401  83.7568252  80.7483867
  28.4958565  84.0823151  81.0079684  27.8189745  82.9699748  80.2356933
  35.7872037  82.6296779  87.8919090  35.2070706  83.2881583  87.5097142
  35.5207970  81.8074123  87.4806507  34.2375603  82.0301836  90.0940410
  34.7375382  82.1418371  89.2854729  34.8811211  81.7262889  90.7341219
  34.5696915  84.7896869  86.9475438  33.6822770  85.0746520  86.7295633
  34.9850904  84.6290632  86.1002715  37.9211451  84.8143390  90.6629777
  38.6971841  85.3039842  90.9354394  37.1959585  85.2401444  91.1201647
  40.3584010  85.5271009  91.7203718  40.9528501  85.2866745  91.0097026
  40.4310594  84.8078140  92.3477254  33.7140129  94.5541544  81.0423458
  34.4175979  94.7591546  81.6581114  32.9902777  95.1218306  81.3072542
  34.5437939  90.3051405  87.1625728  34.4873140  90.7619956  86.3233361
  35.0966281  89.5442090  86.9848571  38.3542745  86.0941137  87.9875848
  38.0979679  85.6937773  88.8184056  37.7295613  86.8084931  87.8625987
  42.6655083  88.8337210  90.4947139  42.1054641  88.9030399  91.2678701
  42.0598586  88.6578195  89.7746636  35.6226826  94.9924073  83.0921918
  36.4572430  94.5605271  82.9099393  35.4611169  94.8206087  84.0198813
  35.2772718  91.4956186  84.4578258  35.2221522  91.3300458  83.5166702
  34.6518773  92.2032219  84.6140447  28.5868844  80.9964295  84.0363576
  28.5747513  81.9406135  84.1931847  29.4792265  80.8134441  83.7423037
  32.4020963  77.5907072  88.2909513  31.6353359  77.0365559  88.4366195
  32.8131668  77.6628941  89.1523664  40.4642403 100.6237552  83.3587973
  40.6316806 101.4917789  83.7258444  40.2739572 100.7864834  82.4349262
  46.1416690 103.5516683  85.1714973  47.0534547 103.7844070  84.9962671
  45.6326337 104.1353727  84.6090052  41.3766743  99.5669878  88.8086877
  40.5208339  99.1776729  88.6292516  41.7893694  99.6461839  87.9486663
  39.1508775  97.1854951  92.2144619  40.0161772  96.9897760  91.8550508
  39.2186284  96.9565303  93.1413976  43.5805935 102.5947270  85.5761420
  43.2756070 102.9093419  86.4271563  44.5336377 102.6728689  85.6188753
  36.7571094  99.4157159  89.5860986  37.3314846  99.1932341  88.8534179
  37.3442077  99.4845854  90.3389587  39.0593762  96.2898408  88.3136055
  38.4058174  95.9747425  87.6892670  39.0174236  95.6674149  89.0395878
  45.6257014  93.9905126  90.3446941  45.9315891  93.1302489  90.0572857
  46.3509619  94.5822746  90.1445935  43.4539638  99.4529767  90.6951504
  43.9508337  98.6999730  90.3752574  42.6826619  99.4894084  90.1294713
  40.0374606 101.5947150  90.4223188  39.6672394 101.0418191  91.1104094
  40.5333699 100.9905284  89.8698188  38.5155567  99.3512392  84.9375779
  39.2363930  99.7293645  84.4339496  37.8920871 100.0701269  85.0410757
  42.6586690 100.0557541  85.8734111  42.8750305 100.9382179  85.5722939
  42.1780757  99.6643754  85.1439753  38.6619190  98.8860182  87.7673315
  38.7835102  97.9576829  87.9664203  38.3721233  98.8998868  86.8551631
  41.5310381  96.5715093  90.9040035  41.5532078  96.6354426  89.9492015
  41.9478440  95.7319601  91.0980541  43.3311186  93.7903452  91.7675924
  43.6112940  93.1226641  92.3936350  44.1161793  93.9832547  91.2550588
  47.4913338  95.9679264  90.6343894  47.2938159  95.6594353  91.5187226
  48.1013043  96.6940903  90.7641824  39.7034370 102.2273235  80.6071888
  38.7965826 101.9306347  80.6834601  39.9810351 101.9303053  79.7406174
  41.3196436  96.7710124  86.7616129  40.5097165  96.4257209  87.1371375
  42.0080853  96.4617668  87.3503741  43.2486984  95.8488171  88.3840426
  43.8018023  96.2683625  89.0430449  43.4857071  94.9223919  88.4263382
  38.4733155  99.0860170  80.7483867  39.3352319  99.4115068  81.0079684
  38.6583499  98.2991666  80.2356933  46.6265792  97.9588696  87.8919090
  46.0464461  98.6173500  87.5097142  46.3601724  97.1366041  87.4806507
  45.0769358  97.3593754  90.0940410  45.5769136  97.4710289  89.2854729
  45.7204966  97.0554807  90.7341219  45.4090670 100.1188787  86.9475438
  44.5216525 100.4038437  86.7295633  45.8244659  99.9582550  86.1002715
  39.4262598  96.3256213  84.0363576  39.4141268  97.2698053  84.1931847
  40.3186020  96.1426358  83.7423037  43.2414718  92.9198990  88.2909513
  42.4747113  92.3657476  88.4366195  43.6525423  92.9920858  89.1523664
   2.7841674  19.2411135  71.8960280   3.6959530  19.4738522  71.7207978
   2.2751321  19.8248179  71.3335359   5.2700488  25.1591391  76.6418225
   4.5851526  25.5390293  76.0915259   5.3544337  25.7686718  77.3750173
  11.7303241  22.0262054  77.7620898  10.9766949  21.4569452  77.6064902
  11.8650782  21.9924719  78.7091532   5.4078889  23.1646984  72.4100119
   4.6308332  22.8258144  71.9655281   6.0870370  23.1699607  71.7355084
   3.2237451  25.9731339  75.2449811   2.7699778  25.1322249  75.3015002
   2.5931418  26.6092738  75.5824592   1.6670390  27.8107836  76.1799630
   1.9593365  28.3712893  75.4611995   2.1769011  28.1036397  76.9352789
   5.8067386  22.1790691  74.8723041   5.6685285  22.3692287  73.9444230
   5.4503605  22.9410073  75.3291092   1.8105499  22.7617875  68.4078780
   1.1934670  22.0364703  68.3111833   1.3421987  23.5227236  68.0645854
   4.5666953  19.7413226  75.5285268   5.0327405  20.5741217  75.4545570
   5.0174454  19.2758207  76.2330526   2.6343184  26.0857047  72.5271420
   2.9103028  25.9713642  73.4365294   1.7647683  25.6874532  72.4883593
   2.9084281  28.7142714  78.6912173   3.8330828  28.5085575  78.5536624
   2.7399584  28.4659115  79.6001515   2.6979597  29.2328381  74.0474265
   2.8716475  28.6674804  73.2948117   3.1908488  30.0329276  73.8653755
   8.5518988  21.9964804  75.6664565   8.9950134  21.2472129  75.2683688
   7.6745499  21.9874941  75.2838297   3.6854770  28.5495146  71.1471163
   4.3805674  29.1701838  71.3658478   4.0277920  27.6990497  71.4223541
   5.5846193  25.9994851  72.6758494   6.1097517  26.3382124  71.9507814
   5.4968545  25.0641867  72.4921628   8.0951853  23.4670043  78.0587012
   8.9298744  23.9059847  78.2224572   8.2310982  22.9908696  77.2395258
   0.9966898  28.9394048  71.1854839   1.9297571  28.8739609  71.3887714
   0.9090111  29.7750314  70.7269372   3.6254915  28.2559918  68.1458787
   3.5468546  27.9219782  69.0394544   4.4464581  28.7481686  68.1450259
  12.1409656  22.1837664  80.4941142  12.8713044  21.9222952  81.0548845
  11.5316601  21.4466386  80.5343210   2.0515653  15.8083239  73.6720745
   1.1641508  16.0932889  73.4540940   2.4669642  15.6477002  72.8248022
   2.0256677  21.3237775  73.8871035   1.9691878  21.7806326  73.0478667
   2.5785019  20.5628459  73.7093878   5.8361483  17.1127506  74.7121155
   5.5798417  16.7124142  75.5429362   5.2114351  17.8271300  74.5871294
  10.1473820  19.8523580  77.2192446   9.5873378  19.9216769  77.9924008
   9.5417324  19.6764564  76.4991942   3.1045564  26.0110443  69.8167225
   3.9391168  25.5791641  69.6344700   2.9429907  25.8392456  70.7444119
   2.7591456  22.5142556  71.1823564   2.7040260  22.3486827  70.2412008
   2.1337511  23.2218589  71.3385754  11.7329839  36.5280094  79.9122402
  12.3708249  36.4086841  79.2085742  11.6150682  37.4760938  79.9710354
   8.5419545  36.4807522  79.8483926   8.2038057  36.3648586  78.9604461
   9.4109313  36.0798687  79.8284932   4.4006361  38.3342998  75.8380817
   3.8371226  38.2432935  75.0697105   4.2858756  37.5142903  76.3183310
   9.0239328  37.6342373  85.8070132   9.0127969  37.2395172  84.9350636
   9.1859968  36.9008446  86.4003903   1.9470793  39.8294190  78.6765038
   2.7392085  39.4885014  78.2611337   2.1867443  39.9389165  79.5967191
   9.9805920  42.0013966  71.1495282   9.3293899  42.5868046  70.7629296
  10.7750282  42.5320161  71.2090320   3.9061547  39.0903103  71.5482417
   4.6792423  38.5432090  71.4095292   4.2586946  39.9547352  71.7596878
   5.7446589  40.4179485  84.7549316   5.4536455  41.3225116  84.6395982
   6.3803574  40.4596013  85.4693385   6.6702796  37.7956334  81.3450675
   7.2666368  37.5712356  80.6307638   6.7277768  37.0541079  81.9476123
   6.2427825  35.2495769  69.1800866   6.4953345  34.7277290  68.4184329
   5.3052384  35.0861915  69.2827550  11.2871107  34.2531547  76.9875610
  12.0734197  33.8350971  76.6366027  11.5509812  35.1577640  77.1557258
  11.4581185  39.6904398  71.6864266  10.8227018  39.7639024  72.3985171
  11.1278591  40.2797997  71.0083346  16.6879534  34.1906781  77.8908588
  17.4204706  33.6205997  78.1246418  15.9318890  33.8028381  78.3315094
   5.9624113  37.1523875  71.3825241   5.8460371  36.4768778  72.0506326
   6.0726373  36.6656249  70.5657394   8.3055654  36.6134022  75.0871931
   7.9413861  36.0864643  75.7984852   9.1622770  36.2232491  74.9138416
  14.2104955  27.9028355  82.3503197  13.8788280  28.7723766  82.1264412
  13.6150568  27.5864639  83.0297227   7.9461141  31.6423922  70.0833279
   8.1135544  32.5104158  70.4503750   7.7558310  31.8051204  69.1594568
  10.7036474  40.1040901  81.7499110  10.4037197  41.0065940  81.6414917
  10.3587534  39.8373084  82.6020262   4.1548956  36.5554698  77.7835814
   3.2299452  36.4230912  77.9913506   4.4033369  37.3348917  78.2805756
  14.1033618  32.6223441  79.4296547  13.1950495  32.5538849  79.1355308
  14.0521214  33.0995386  80.2578372   7.9250362  34.0981579  71.0679946
   7.8049987  34.5438630  71.9065426   7.2302950  34.4466897  70.5093484
   1.5157767  36.1987971  78.6179603   1.6450148  36.4522450  79.5319015
   0.8355218  36.7915679  78.2984258   5.6857254  46.8685221  74.7170077
   5.6081284  47.8193046  74.7958558   5.0818898  46.5231094  75.3745004
  15.9695265  30.8239879  81.2074421  15.3269645  31.1172413  80.5614215
  15.4650193  30.7092800  82.0127617  13.6235428  34.5703053  71.8960280
  14.5353284  34.8030439  71.7207978  13.1145075  35.1540097  71.3335359
   6.4320856  36.8498540  86.9349411   7.1735541  37.3883584  86.6584235
   5.7257842  37.4764829  87.0920963  11.9076196  38.9927680  85.5321573
  12.3159552  38.5510091  84.7876205  11.1853457  38.4180308  85.7855766
   8.2607266  33.9300287  82.9055130   9.1068461  34.3539701  83.0489779
   8.2005904  33.2733911  83.5993693  12.2305011  39.5528871  79.2873861
  11.6013873  39.7174585  78.5849929  11.8430673  39.9670481  80.0584826
  16.1094242  40.4883309  76.6418225  15.4245281  40.8682210  76.0915259
  16.1938092  41.0978635  77.3750173  11.4106711  31.5904655  84.5636303
  11.1667643  32.3446716  84.0270579  11.6866642  31.9690003  85.3983550
  13.3645174  38.1343268  83.2413569  13.5762069  38.7775028  82.5647950
  13.3174922  37.3005584  82.7735499  10.9671403  30.7461089  80.1450141
  10.1055882  31.0442342  80.4366878  10.9933838  30.9631487  79.2131174
   7.7832972  39.2903279  76.5523947   8.2471318  39.5690982  75.7628569
   7.5189770  38.3886724  76.3697037   4.6757053  38.8374761  79.4903710
   5.2458411  39.2662029  78.8521194   5.2665165  38.5557345  80.1887896
   6.7201858  35.4126431  73.3613512   7.4225902  35.8647475  73.8287438
   6.3882487  34.7710250  73.9893405  14.4791002  41.0115223  81.4135926
  15.3008446  40.6095411  81.1318608  14.4753405  40.9083457  82.3652042
   2.4141938  34.0354563  75.6214122   1.6173101  34.1473258  76.1397618
   2.1867530  34.3741216  74.7555013   8.2447605  40.5599267  83.5696637
   8.3092038  41.0219674  84.4054808   7.5358529  39.9296632  83.6978946
  22.5696995  37.3553972  77.7620898  21.8160703  36.7861370  77.6064902
  22.7044536  37.3216636  78.7091532   7.9595623  42.2267374  73.4375617
   7.8241298  43.0718910  73.8660465   8.5005436  42.4286652  72.6741551
   1.4125020  39.7442812  74.0103542   1.9249541  40.5386062  74.1609107
   2.0647733  39.0469103  73.9437144   3.2219905  42.8608568  76.0926295
   3.3986533  43.7826533  75.9047279   4.0176739  42.5466988  76.5220675
   9.5864099  42.8490941  87.5675959   9.1427954  42.0627319  87.2496864
  10.2481313  43.0370091  86.9019850   4.3451221  44.3786742  82.0936638
   4.8958646  44.2503806  81.3213631   3.5062697  44.6781631  81.7431530
  11.6845338  43.1293741  85.5957360  11.6663813  43.9502622  85.1037629
  12.6065258  43.0047816  85.8207501   8.1418392  40.6437870  86.4380869
   8.6746728  39.8826158  86.2080177   7.6132473  40.3511522  87.1805023
  11.3088087  25.7497936  81.9674510  10.9652356  26.6399578  81.8913621
  11.6767049  25.5599594  81.1044095  11.2738369  35.7406547  70.4746946
  10.7584993  36.5111152  70.7135333  11.0015678  35.0671683  71.0980007
   8.8585480  30.5856248  75.5332184   8.0027077  30.1963098  75.3537823
   9.2712432  30.6648209  74.6731969  10.3884627  28.1202591  79.9323744
   9.8849423  28.0832726  79.1191549  10.6815234  29.0295334  79.9920400
   6.6327513  28.2041321  78.9389925   7.4980510  28.0084130  78.5795815
   6.7005022  27.9751673  79.8659282  16.2472643  38.4938902  72.4100119
  15.4702086  38.1550061  71.9655281  16.9264124  38.4991525  71.7355084
  11.0624673  33.6133639  72.3006727  10.7574808  33.9279788  73.1516870
  12.0155115  33.6915059  72.3434060   9.5071104  39.7723862  73.9499681
   8.9792466  39.0376622  73.6372918   9.0058607  40.5498539  73.7039649
  14.4863950  37.9672883  79.0666727  13.8287625  38.6572144  79.1546856
  15.2904350  38.3569315  79.4100713   4.2389832  30.4343529  76.3106292
   4.8133584  30.2118710  75.5779485   4.8260814  30.5032223  77.0634894
  13.2969409  36.3217256  77.1170669  13.8101291  36.9547247  77.6192378
  13.9470633  35.7218451  76.7514029   4.5659419  32.4647990  70.3302177
   3.7296731  32.8022676  70.6511452   4.4264189  32.3296970  69.3929314
   6.5412500  27.3084778  75.0381362   5.8876912  26.9933795  74.4137976
   6.4992974  26.6860518  75.7641185   7.6523705  37.5904073  66.9534654
   6.7450766  37.3593326  67.1525803   8.1494737  36.7941692  67.1408635
  10.5591783  46.3001580  69.8731340   9.8853482  46.6033277  70.4816298
  10.9457605  47.1030660  69.5236797   9.7750240  33.7966711  79.3629009
   8.8572801  34.0181658  79.2050697  10.1910384  33.8713022  78.5040717
  10.5585288  35.1958127  74.4931690  11.3057107  35.7079524  74.1838812
  10.8276877  34.8742180  75.3536083   8.8311938  37.6916668  71.4758644
   7.9223157  37.4075700  71.5731114   8.8607022  38.1115746  70.6161951
  14.0631205  41.3023257  75.2449811  13.6093533  40.4614167  75.3015002
  13.4325172  41.9384655  75.5824592  13.0064125  32.2315243  76.4750479
  12.2686882  31.7192629  76.8060721  13.2590899  31.7915625  75.6633756
  12.5064145  43.1399754  76.1799630  12.7987119  43.7004811  75.4611995
  13.0162765  43.4328315  76.9352789  13.1075752  25.0091495  77.0692248
  13.4134629  24.1488859  76.7818163  13.8328357  25.6009115  76.8691242
   7.3796832  35.3045288  77.5768439   7.4345442  34.3519125  77.5010916
   6.5688034  35.4604727  78.0609738   8.5288026  39.2325411  68.8146722
   8.0907456  38.5161270  68.3552360   9.2698467  39.4601526  68.2531814
   5.3189192  33.9222348  75.3358818   4.5057057  34.2216519  75.7424010
   5.8148186  33.5278037  76.0533300   7.4697770  43.9180105  77.2693083
   7.4273949  44.1440951  76.3401615   8.3860469  43.6843479  77.4178884
  10.9163404  34.3864172  84.1673712  11.2712791  34.6135646  85.0268178
  11.5635535  34.7182549  83.5450967  16.6461141  37.5082608  74.8723041
  16.5079039  37.6984204  73.9444230  16.2897359  38.2701991  75.3291092
   4.8103267  31.4940703  80.9520053   5.4502646  31.3529463  80.2543016
   3.9780797  31.2075217  80.5758655  16.6730520  39.5759135  79.8834312
  17.1067027  39.4834424  80.7317366  17.3862101  39.5516636  79.2454328
   5.5863571  40.7943134  77.0655045   6.3804169  40.2993454  76.8637620
   4.8755263  40.2660997  76.7022751  10.4058415  43.1761229  81.4167413
  10.4595437  43.7452166  82.1845129   9.5373196  43.3463114  81.0521450
   1.8946334  34.9386216  73.1414798   0.9643922  34.8770671  73.3584760
   1.9903806  34.4162168  72.3451439   1.8131883  31.4641028  75.7293040
   2.0738700  32.3786362  75.6202200   2.6349055  30.9965471  75.8789653
   3.2856808  32.8778786  82.8991864   3.9579862  32.6696148  82.2504513
   2.4586595  32.6800872  82.4597097  17.5346070  39.6182836  82.4167198
  17.7281960  40.5228646  82.6626473  17.4346688  39.1590255  83.2505783
  12.5961178  39.7689579  87.9908078  12.4446685  39.5400130  87.0738162
  12.5865858  40.7260180  88.0039423   9.3646515  37.3421491  82.9754345
  10.2938575  37.4932651  82.8023312   8.9437545  37.4305512  82.1202991
   8.1634847  41.3672156  80.7452883   8.0245932  40.9990940  81.6178821
   7.3749443  41.8819795  80.5736840   8.7582999  46.4681252  72.0878419
   8.9334754  45.9969296  72.9024042   8.0715787  47.0947019  72.3159680
   9.7140062  40.7453759  78.1341720   9.3789894  40.7054529  79.0299370
   9.2144007  40.0798474  77.6612131   3.6884306  36.1521389  83.6594301
   3.5504104  35.4201627  84.2605841   4.5989229  36.0630289  83.3778489
  12.6499253  38.0909793  68.4078780  12.0328424  37.3656621  68.3111833
  12.1815742  38.8519153  68.0645854   6.3166606  35.8641348  83.1477981
   7.0266225  35.2234540  83.1064600   6.2735915  36.1154243  84.0704162
  14.3053385  42.8008701  86.0684560  14.2465931  42.1167921  85.4015143
  14.7072903  43.5427691  85.6165186   3.3244084  49.6170615  78.8618279
   3.5640682  50.2489139  79.5397298   2.4813280  49.2658655  79.1483638
   4.4397799  32.3095217  67.5300084   3.5627266  32.1884018  67.1662331
   4.9155552  31.5181296  67.2778973  14.3070792  40.7648285  84.2998540
  13.4197571  40.4274207  84.4224939  14.8769343  40.0331316  84.5367305
   7.8371946  45.4249738  81.2659783   7.7642117  46.2304709  81.7779088
   7.3949339  45.6241703  80.4407805   7.6261725  44.6621508  74.7762605
   6.8429247  45.2043188  74.8700829   8.3254471  45.1795487  75.1756846
  10.9358375  30.4716137  77.4196810  11.4327075  29.7186099  77.0997880
  10.1645357  30.5080454  76.8540019  18.7888133  36.1756503  79.0615102
  18.7778009  37.0581218  78.6909035  17.9205512  35.8228053  78.8669639
  10.2970629  45.3236572  83.4217942  11.0098601  45.9584036  83.3493843
   9.8060658  45.4200438  82.6057944  12.0188156  39.2287824  74.9935234
  11.0844435  39.3489287  74.8239938  12.1964825  38.3260291  74.7295243
   7.5193344  32.6133520  77.1468495   7.1491132  32.0604560  77.8349400
   8.0152437  32.0091654  76.5943495  15.4060708  35.0705144  75.5285268
  15.8721160  35.9033135  75.4545570  15.8568208  34.6050125  76.2330526
   5.3482543  43.0731015  84.2423513   6.0492002  43.7067498  84.3952907
   4.8777658  43.4145747  83.4819152  13.4736939  41.4148965  72.5271420
  13.7496783  41.3005559  73.4365294  12.6041437  41.0166450  72.4883593
  13.3777370  27.4385731  79.5676169  12.4640450  27.6689957  79.7358376
  13.8070472  27.5224175  80.4190201  13.1483829  35.6275623  82.0676063
  12.4955279  35.8751530  81.4128516  13.5264209  34.8139761  81.7338540
  10.1091003  45.6635316  76.1704233  10.2913397  44.8456972  76.6331986
  10.9323989  45.8803008  75.7329123  10.4433168  44.5903501  73.4319282
  10.9720935  44.0795955  72.8189444  10.7061388  44.2746031  74.2964815
   0.9450261  42.6067370  81.1754615   1.5303698  41.8611058  81.3082520
   0.7475099  42.9171327  82.0591279   3.7988916  45.6418617  76.1917058
   3.1299291  46.1264745  75.7081098   3.6601786  45.8887838  77.1060436
   7.9394185  47.6762361  82.7899716   8.4912493  47.8393983  83.5548801
   8.2800378  48.2666799  82.1179741  12.7905059  42.5023619  88.6448371
  13.3344963  43.1153577  88.1503325  12.2091904  43.0603197  89.1615384
  11.0762572  45.6244337  79.7763398  10.9513711  44.8234076  79.2674344
  11.7341663  46.1190530  79.2877368   2.6970740  31.9793069  78.9540539
   1.9757326  32.5929037  78.8148012   3.4863996  32.5150834  78.8757184
  13.1397480  43.4253357  81.4042948  12.1927816  43.3058708  81.3321275
  13.4880253  42.5375855  81.4869210   0.8964335  31.5851170  73.0952315
   0.5677041  30.7048549  72.9127421   1.2503705  31.5298839  73.9828704
  10.1443914  43.2206073  77.6047301   9.9968876  42.2922780  77.7854871
  10.9697407  43.2426164  77.1204376   4.0106158  31.8724140  73.4627793
   4.3502230  32.4010061  72.7406401   4.4578278  32.2104546  74.2386359
  13.7478035  44.0434632  78.6912173  14.6724583  43.8377493  78.5536624
  13.5793339  43.7951033  79.6001515   6.7049599  30.2561191  82.9130861
   6.3646419  29.4569004  83.3151541   5.9988605  30.5562901  82.3407694
   7.3566071  27.3410503  81.3658184   8.1792140  26.8670981  81.2437074
   7.6004134  28.1200987  81.8656870   5.9974305  30.3698762  71.6621086
   6.7182668  30.7480014  71.1584802   5.3739609  31.0887638  71.7656063
  10.1405428  31.0743910  72.5979418  10.3569042  31.9568548  72.2968246
   9.6599495  30.6830124  71.8685060   4.8804649  34.0329624  79.1750162
   4.7349230  34.3469927  80.0674444   4.4029853  34.6514524  78.6221061
   6.7401032  31.0232172  79.2231052   6.7262601  30.1273265  78.8863350
   7.4573460  31.0302835  79.8569338   8.5927163  31.4569512  81.2684179
   8.3344941  32.3786583  81.2668510   8.0612203  31.0599946  81.9584644
  13.5373352  44.5620299  74.0474265  13.7110229  43.9966722  73.2948117
  14.0302243  45.3621194  73.8653755   6.1437928  29.9046552  74.4918622
   6.2653839  28.9763198  74.6909510   5.8539970  29.9185238  73.5796938
   9.0129119  27.5901462  77.6285342   9.0350815  27.6540795  76.6737322
   9.4297178  26.7505971  77.8225848  19.3912743  37.3256722  75.6664565
  19.8343889  36.5764047  75.2683688  18.5139253  37.3166858  75.2838297
  14.5248524  43.8787063  71.1471163  15.2199429  44.4993756  71.3658478
  14.8671674  43.0282415  71.4223541  16.4239947  41.3286769  72.6758494
  16.9491271  41.6674042  71.9507814  16.3362300  40.3933784  72.4921628
   8.0859996  45.2420843  84.8048370   8.3947122  44.9969989  85.6771070
   8.8835478  45.4467481  84.3167241   8.1080608  47.3958752  77.0353747
   7.6685598  46.9035131  77.7286604   8.8588725  46.8531720  76.7945822
   5.5554480  42.9396761  79.1076049   4.9334489  42.2767466  78.8078277
   6.2259347  42.9657893  78.4249696  16.1133853  41.9619673  87.9809692
  15.3229397  41.9443811  87.4414191  15.8767208  42.5007966  88.7358728
  16.2331728  38.8112139  85.2942420  16.2829733  38.6462146  86.2357943
  16.1245652  37.9439398  84.9040301   5.1167987  41.4900685  72.5834509
   5.2656107  42.1736149  71.9301182   5.9234431  41.4705775  73.0983965
  13.5235491  34.7943067  86.6101727  14.4245354  34.6549532  86.3185725
  13.5983465  34.9597522  87.5499904  17.7349925  41.2309080  85.5384442
  17.4434734  41.5939061  86.3747903  17.1222057  40.5176089  85.3597774
  18.9345608  38.7961960  78.0587012  19.7692499  39.2351764  78.2224572
  19.0704736  38.3200613  77.2395258  15.9837113  36.3541695  84.0064500
  16.4591235  36.5469341  83.1983351  15.0602679  36.4100881  83.7607884
   2.8720620  37.5165862  73.5895578   2.6266662  36.6128192  73.7875788
   3.0416535  37.5183013  72.6475056  10.5617330  28.3889539  82.9720334
  11.0799274  29.1250566  82.6466822  10.2072463  28.6953532  83.8067093
   2.1416268  33.2494220  71.0881740   1.4485513  33.3238575  70.4321776
   1.8968020  32.4854564  71.6103257  10.8129924  24.8089821  78.4921230
  11.0931678  24.1413010  79.1181657  11.5980531  25.0018917  77.9795894
   8.6163393  43.9848815  70.0546257   8.0437360  44.6039002  69.6016729
   9.1896186  44.5348177  70.5886179  14.6838782  33.2307455  82.2392805
  15.6356205  33.3305553  82.2605030  14.5142233  32.4385724  82.7490890
  12.7053162  30.3163038  82.4252206  12.1103094  30.5968051  81.7298695
  12.4202859  30.8056939  83.1968948  11.8360652  44.2685965  71.1854839
  12.7691326  44.2031527  71.3887714  11.7483865  45.1042232  70.7269372
  14.4648669  43.5851836  68.1458787  14.3862301  43.2511699  69.0394544
  15.2858336  44.0773603  68.1450259  17.1626860  36.4513575  81.3535105
  17.1303180  35.5129576  81.5394789  17.7727484  36.5297612  80.6200930
   9.0010191  35.3209628  67.3962309   9.9469296  35.1915836  67.4650727
   8.6224436  34.5824290  67.8731737  17.3121349  33.2424618  81.3993388
  16.7960397  32.4583075  81.2123317  18.1961297  32.9143335  81.5639908
  14.9732076  26.9865634  77.3589201  14.7756897  26.6780722  78.2432533
  15.5831781  27.7127273  77.4887131  22.9803410  37.5129582  80.4941142
  23.7106799  37.2514870  81.0548845  22.3710356  36.7758304  80.5343210
  21.0618707  35.6537444  81.0915593  20.3351871  35.5193409  80.4832085
  20.6465994  35.9614273  81.8972311   8.8848884  39.3727374  88.8562966
   9.8051893  39.5505973  89.0503013   8.8498467  38.4283419  88.7042665
   7.1853108  33.2459604  67.3317194   6.2784564  32.9492717  67.4079908
   7.4629089  32.9489422  66.4651481   1.8810956  37.2828409  81.4985747
   2.0996966  38.2145516  81.5173781   2.2936730  36.9236383  82.2840551
   8.8015174  27.7896494  73.4861436   7.9915902  27.4443579  73.8616682
   9.4899591  27.4804038  74.0749047  10.7305722  26.8674541  75.1085732
  11.2836761  27.2869994  75.7675755  10.9675809  25.9410289  75.1508688
   5.9551893  30.1046539  67.4729174   6.8171057  30.4301438  67.7324991
   6.1402237  29.3178035  66.9602239  14.1084529  28.9775066  74.6164397
  13.5283198  29.6359870  74.2342449  13.8420462  28.1552411  74.2051814
  12.5588096  28.3780124  76.8185717  13.0587874  28.4896658  76.0100036
  13.2023704  28.0741176  77.4586525   2.5443429  40.1763288  81.7421992
   3.4986683  40.1447230  81.6751923   2.3455953  39.7153912  82.5572218
   3.1342811  38.7464404  84.3092789   3.9535700  39.2408483  84.3327627
   3.4079619  37.8296372  84.2810357  12.8909407  31.1375156  73.6720745
  12.0035262  31.4224807  73.4540940  13.3063396  30.9768920  72.8248022
  16.2423944  31.1621677  77.3875084  17.0184334  31.6518130  77.6599701
  15.5172078  31.5879731  77.8446954  18.6796502  31.8749297  78.4449025
  19.2740993  31.6345032  77.7342333  18.7523086  31.1556427  79.0722561
  12.0352621  40.9019831  67.7668765  12.7388471  41.1069833  68.3826420
  11.3115270  41.4696593  68.0317848  12.8650431  36.6529692  73.8871035
  12.8085633  37.1098244  73.0478667  13.4178774  35.8920377  73.7093878
  16.6755237  32.4419424  74.7121155  16.4192171  32.0416060  75.5429362
  16.0508105  33.1563218  74.5871294  20.9867575  35.1815497  77.2192446
  20.4267133  35.2508687  77.9924008  20.3811078  35.0056482  76.4991942
   4.0562784  46.6152224  78.9710632   3.9395168  47.5597657  78.8689322
   3.2355230  46.3125786  79.3596431  13.9439318  41.3402360  69.8167225
  14.7784922  40.9083559  69.6344700  13.7823661  41.1684374  70.7444119
  13.5985210  37.8434473  71.1823564  13.5434014  37.6778745  70.2412008
  12.9731266  38.5510506  71.3385754  10.9131118  40.1483385  90.5077127
  11.7822277  40.3224038  90.1463762  10.4337869  40.9677802  90.3852856
   6.9081336  27.3442582  70.7608883   6.8960006  28.2884422  70.9177153
   7.8004758  27.1612728  70.4668344   5.0817298  47.2680486  82.1866561
   5.9844545  47.3004097  82.5033056   4.8554668  46.3380937  82.2012896
   6.8370900  46.0211473  78.8476639   5.8866531  46.0213335  78.7341012
   7.1403386  45.2744207  78.3312674  10.7233455  23.9385359  75.0154819
   9.9565851  23.3843846  75.1611502  11.1344160  24.0107228  75.8768971
  22.5723593  51.8572011  79.9122402  23.2102003  51.7378759  79.2085742
  22.4544436  52.8052855  79.9710354  19.3813300  51.8099439  79.8483926
  19.0431811  51.6940504  78.9604461  20.2503068  51.4090604  79.8284932
  15.2400115  53.6634916  75.8380817  14.6764980  53.5724853  75.0697105
  15.1252510  52.8434820  76.3183310  19.8633083  52.9634291  85.8070132
  19.8521723  52.5687089  84.9350636  20.0253722  52.2300364  86.4003903
  12.7864547  55.1586107  78.6765038  13.5785839  54.8176932  78.2611337
  13.0261197  55.2681082  79.5967191  14.7455301  54.4195021  71.5482417
  15.5186177  53.8724008  71.4095292  15.0980700  55.2839270  71.7596878
  16.5840344  55.7471403  84.7549316  16.2930210  56.6517034  84.6395982
  17.2197328  55.7887931  85.4693385  17.5096551  53.1248251  81.3450675
  18.1060123  52.9004274  80.6307638  17.5671522  52.3832997  81.9476123
  17.0821579  50.5787687  69.1800866  17.3347100  50.0569208  68.4184329
  16.1446138  50.4153832  69.2827550  22.1264862  49.5823465  76.9875610
  22.9127951  49.1642888  76.6366027  22.3903566  50.4869557  77.1557258
  27.5273289  49.5198698  77.8908588  28.2598461  48.9497915  78.1246418
  26.7712645  49.1320299  78.3315094  16.8017868  52.4815793  71.3825241
  16.6854126  51.8060696  72.0506326  16.9120128  51.9948167  70.5657394
  19.1449409  51.9425940  75.0871931  18.7807616  51.4156561  75.7984852
  20.0016525  51.5524409  74.9138416  25.0498709  43.2320272  82.3503197
  24.7182034  44.1015683  82.1264412  24.4544323  42.9156556  83.0297227
  18.7854896  46.9715840  70.0833279  18.9529298  47.8396076  70.4503750
  18.5952065  47.1343121  69.1594568  14.9942710  51.8846615  77.7835814
  14.0693207  51.7522829  77.9913506  15.2427124  52.6640835  78.2805756
  24.9427373  47.9515359  79.4296547  24.0344250  47.8830767  79.1355308
  24.8914968  48.4287304  80.2578372  18.7644117  49.4273497  71.0679946
  18.6443742  49.8730548  71.9065426  18.0696705  49.7758815  70.5093484
  12.3551521  51.5279889  78.6179603  12.4843903  51.7814368  79.5319015
  11.6748973  52.1207597  78.2984258  19.0168238  49.3705004  87.3731444
  18.2401572  49.9298924  87.3634309  19.6558801  49.8561787  87.8946314
  26.8089019  46.1531797  81.2074421  26.1663399  46.4464330  80.5614215
  26.3043948  46.0384717  82.0127617  24.4629183  49.8994970  71.8960280
  25.3747039  50.1322357  71.7207978  23.9538830  50.4832014  71.3335359
  17.2714611  52.1790458  86.9349411  18.0129295  52.7175502  86.6584235
  16.5651596  52.8056746  87.0920963  22.7469950  54.3219598  85.5321573
  23.1553306  53.8802009  84.7876205  22.0247212  53.7472226  85.7855766
  19.1001020  49.2592205  82.9055130  19.9462216  49.6831618  83.0489779
  19.0399658  48.6025829  83.5993693  22.2500466  46.9196573  84.5636303
  22.0061398  47.6738634  84.0270579  22.5260396  47.2981921  85.3983550
  21.8065157  46.0753006  80.1450141  20.9449637  46.3734260  80.4366878
  21.8327592  46.2923405  79.2131174  18.6226727  54.6195197  76.5523947
  19.0865072  54.8982900  75.7628569  18.3583525  53.7178641  76.3697037
  15.5150808  54.1666678  79.4903710  16.0852165  54.5953947  78.8521194
  16.1058920  53.8849263  80.1887896  17.5595613  50.7418349  73.3613512
  18.2619656  51.1939393  73.8287438  17.2276241  50.1002168  73.9893405
  16.0075974  49.3330106  87.7364721  15.3774635  50.0146387  87.9700118
  15.9012062  49.2213187  86.7917859  11.3020947  49.0001902  78.6630645
  10.5120001  49.2559430  78.1870756  11.7932194  49.8150240  78.7682686
  13.2535692  49.3646481  75.6214122  12.4566856  49.4765175  76.1397618
  13.0261284  49.7033133  74.7555013  19.0841360  55.8891184  83.5696637
  19.1485792  56.3511591  84.4054808  18.3752284  55.2588549  83.6978946
   9.5858650  49.2532392  81.0945636   9.8366688  50.1379402  81.3603212
  10.1218198  49.0736994  80.3220728  15.2856717  43.6350872  90.0989972
  14.8923663  43.0817070  90.7737616  16.1022858  43.9461450  90.4896490
  12.2518775  55.0734730  74.0103542  12.7643296  55.8677980  74.1609107
  12.9041488  54.3761020  73.9437144  14.0613660  58.1900486  76.0926295
  14.2380288  59.1118451  75.9047279  14.8570493  57.8758905  76.5220675
  18.2024678  45.0508751  87.6910229  18.9434392  45.6515904  87.6114691
  18.4342601  44.3086388  87.1328271  13.3466016  50.2365118  85.9688458
  13.2319531  49.3350375  86.2695557  12.4910534  50.4828815  85.6173275
  20.4257854  58.1782858  87.5675959  19.9821708  57.3919237  87.2496864
  21.0875068  58.3662009  86.9019850  15.1844975  59.7078660  82.0936638
  15.7352400  59.5795723  81.3213631  14.3456451  60.0073549  81.7431530
  18.9812146  55.9729788  86.4380869  19.5140483  55.2118076  86.2080177
  18.4526227  55.6803439  87.1805023  22.1481841  41.0789854  81.9674510
  21.8046111  41.9691495  81.8913621  22.5160804  40.8891511  81.1044095
  10.2167692  53.4023384  74.7863113  11.0542914  53.8120392  74.5696820
  10.3945959  52.4622826  74.7563306  22.1132124  51.0698465  70.4746946
  21.5978747  51.8403069  70.7135333  21.8409432  50.3963601  71.0980007
  19.6979235  45.9148166  75.5332184  18.8420831  45.5255016  75.3537823
  20.1106187  45.9940126  74.6731969  21.2278382  43.4494509  79.9323744
  20.7243177  43.4124644  79.1191549  21.5208988  44.3587252  79.9920400
  17.4721267  43.5333239  78.9389925  18.3374264  43.3376047  78.5795815
  17.5398776  43.3043590  79.8659282  21.9018427  48.9425557  72.3006727
  21.5968563  49.2571706  73.1516870  22.8548869  49.0206977  72.3434060
  15.0783586  45.7635446  76.3106292  15.6527338  45.5410628  75.5779485
  15.6654569  45.8324141  77.0634894  15.4053174  47.7939907  70.3302177
  14.5690486  48.1314594  70.6511452  15.2657943  47.6588887  69.3929314
  17.3806254  42.6376695  75.0381362  16.7270667  42.3225713  74.4137976
  17.3386728  42.0152436  75.7641185  18.4917459  52.9195990  66.9534654
  17.5844521  52.6885244  67.1525803  18.9888491  52.1233610  67.1408635
  20.6143995  49.1258629  79.3629009  19.6966556  49.3473576  79.2050697
  21.0304138  49.2004939  78.5040717  21.3979042  50.5250045  74.4931690
  22.1450861  51.0371442  74.1838812  21.6670632  50.2034097  75.3536083
  19.6705692  53.0208585  71.4758644  18.7616912  52.7367618  71.5731114
  19.7000776  53.4407664  70.6161951  23.8457879  47.5607161  76.4750479
  23.1080636  47.0484547  76.8060721  24.0984653  47.1207542  75.6633756
  23.9469507  40.3383413  77.0692248  24.2528384  39.4780776  76.7818163
  24.6722112  40.9301033  76.8691242  10.2393863  50.7414099  75.4573846
  10.0418263  50.1483460  74.7324913   9.6840527  50.4366310  76.1749785
  18.2190587  50.6337206  77.5768439  18.2739196  49.6811042  77.5010916
  17.4081789  50.7896645  78.0609738  19.3681780  54.5617329  68.8146722
  18.9301210  53.8453188  68.3552360  20.1092221  54.7893444  68.2531814
  16.1582946  49.2514266  75.3358818  15.3450812  49.5508436  75.7424010
  16.6541941  48.8569954  76.0533300  21.7557158  49.7156090  84.1673712
  22.1106546  49.9427563  85.0268178  22.4029289  50.0474467  83.5450967
  15.6497021  46.8232621  80.9520053  16.2896401  46.6821380  80.2543016
  14.8174552  46.5367135  80.5758655  16.4257325  56.1235052  77.0655045
  17.2197924  55.6285372  76.8637620  15.7149017  55.5952915  76.7022751
  12.7340089  50.2678133  73.1414798  11.8037677  50.2062589  73.3584760
  12.8297561  49.7454086  72.3451439  12.6525638  46.7932946  75.7293040
  12.9132455  47.7078279  75.6202200  13.4742810  46.3257389  75.8789653
  14.1250563  48.2070703  82.8991864  14.7973616  47.9988065  82.2504513
  13.2980349  48.0092789  82.4597097  20.0276135  44.8332644  84.9157525
  19.3804050  45.5322594  84.8222002  20.7977150  45.2668788  85.2833773
  23.4354933  55.0981496  87.9908078  23.2840439  54.8692048  87.0738162
  23.4259612  56.0552098  88.0039423  20.2040269  52.6713409  82.9754345
  21.1332329  52.8224569  82.8023312  19.7831299  52.7597430  82.1202991
  14.5278060  51.4813306  83.6594301  14.3897858  50.7493545  84.2605841
  15.4382984  51.3922206  83.3778489  23.4893008  53.4201711  68.4078780
  22.8722179  52.6948539  68.3111833  23.0209496  54.1811071  68.0645854
  17.1560361  51.1933266  83.1477981  17.8659979  50.5526458  83.1064600
  17.1129669  51.4446160  84.0704162  15.8689295  48.1798483  84.9673621
  15.3326652  47.7289222  85.6195217  15.2806003  48.3144392  84.2244085
  14.1637838  64.9462533  78.8618279  14.4034437  65.5781057  79.5397298
  13.3207035  64.5950573  79.1483638  15.2791554  47.6387135  67.5300084
  14.4021020  47.5175936  67.1662331  15.7549307  46.8473213  67.2778973
   6.7993694  52.4264295  77.6241591   7.4864734  52.1126025  77.0362607
   6.6441823  53.3305659  77.3508843  11.6028416  47.3154491  82.0526615
  11.5186605  46.7080161  81.3177025  10.7811122  47.8063509  82.0536111
  21.7752130  45.8008055  77.4196810  22.2720829  45.0478017  77.0997880
  21.0039111  45.8372371  76.8540019  18.3587099  47.9425438  77.1468495
  17.9884886  47.3896478  77.8349400  18.8546191  47.3383571  76.5943495
  26.2454462  50.3997061  75.5285268  26.7114914  51.2325053  75.4545570
  26.6961962  49.9342043  76.2330526  16.1876297  58.4022933  84.2423513
  16.8885757  59.0359416  84.3952907  15.7171412  58.7437664  83.4819152
  24.2171125  42.7677648  79.5676169  23.3034205  42.9981875  79.7358376
  24.6464226  42.8516092  80.4190201  23.9877583  50.9567540  82.0676063
  23.3349033  51.2043448  81.4128516  24.3657963  50.1431678  81.7338540
  20.0365156  51.6987351  88.5542100  19.3605793  51.5981481  89.2244475
  20.8592790  51.5426565  89.0178097  11.7844015  57.9359288  81.1754615
  12.3697452  57.1902976  81.3082520  11.5868854  58.2463244  82.0591279
   6.3761670  50.5064888  79.8959059   6.4145770  49.9728479  80.6896177
   5.8701963  49.9800093  79.2770036  13.7552432  45.3529428  83.3921601
  13.8193759  46.2144259  82.9798999  13.6919553  44.7403430  82.6593959
  13.2304705  47.4252561  87.0394635  13.8576744  47.0429638  87.6532159
  12.3732624  47.2066763  87.4050328  23.6298813  57.8315536  88.6448371
  24.1738717  58.4445494  88.1503325  23.0485658  58.3895115  89.1615384
  10.0070248  49.2328990  72.9712990  10.3023689  48.3239669  72.9180044
   9.1058283  49.2116730  72.6493992  13.5364495  47.3084987  78.9540539
  12.8151080  47.9220954  78.8148012  14.3257750  47.8442752  78.8757184
  16.3390808  44.6439413  85.2281190  16.8625210  44.8901710  85.9907500
  16.1203141  45.4759448  84.8084328  11.7358089  46.9143088  73.0952315
  11.4070795  46.0340467  72.9127421  12.0897460  46.8590756  73.9828704
  14.8499912  47.2016058  73.4627793  15.1895985  47.7301979  72.7406401
  15.2972033  47.5396464  74.2386359  17.5443353  45.5853108  82.9130861
  17.2040174  44.7860921  83.3151541  16.8382359  45.8854819  82.3407694
  18.1959825  42.6702421  81.3658184  19.0185894  42.1962899  81.2437074
  18.4397889  43.4492905  81.8656870  16.8368060  45.6990679  71.6621086
  17.5576422  46.0771932  71.1584802  16.2133364  46.4179556  71.7656063
  20.9799182  46.4035828  72.5979418  21.1962797  47.2860466  72.2968246
  20.4993250  46.0122042  71.8685060  15.7198404  49.3621541  79.1750162
  15.5742985  49.6761844  80.0674444  15.2423607  49.9806442  78.6221061
  17.5794787  46.3524089  79.2231052  17.5656355  45.4565183  78.8863350
  18.2967215  46.3594753  79.8569338  19.4320917  46.7861430  81.2684179
  19.1738695  47.7078500  81.2668510  18.9005958  46.3891864  81.9584644
  10.1944066  51.9026886  82.1137824   9.6497534  52.6786694  82.2458098
  11.0723416  52.2497690  81.9556945  16.9831683  45.2338470  74.4918622
  17.1047594  44.3055116  74.6909510  16.6933725  45.2477156  73.5796938
  19.8522873  42.9193380  77.6285342  19.8744570  42.9832713  76.6737322
  20.2690932  42.0797889  77.8225848  10.9810088  51.0296782  85.0067980
  10.2391824  51.1779417  85.5932611  10.6602832  51.2905048  84.1434730
  18.9253750  60.5712760  84.8048370  19.2340877  60.3261907  85.6771070
  19.7229232  60.7759399  84.3167241  11.4266701  58.9162211  77.0378375
  12.2524721  58.6165983  76.6577019  11.0760753  58.1469833  77.4868164
  16.3948235  58.2688679  79.1076049  15.7728244  57.6059384  78.8078277
  17.0653102  58.2949811  78.4249696   9.6275307  56.8348537  77.9967309
   8.7907215  56.4070712  77.8151310   9.5998952  57.0280981  78.9338100
  16.4672762  46.7470467  88.7008555  16.5160918  47.6232590  88.3186324
  17.0095276  46.2047860  88.1280198  15.9561742  56.8192602  72.5834509
  16.1049862  57.5028067  71.9301182  16.7628185  56.7997692  73.0983965
  24.3629245  50.1234985  86.6101727  25.2639108  49.9841450  86.3185725
  24.4377220  50.2889440  87.5499904  18.6972051  47.5001839  85.4554913
  17.8275360  47.7935405  85.1837502  18.9331531  48.0842284  86.1762177
  13.7114375  52.8457780  73.5895578  13.4660416  51.9420110  73.7875788
  13.8810289  52.8474930  72.6475056  21.4011084  43.7181456  82.9720334
  21.9193028  44.4542483  82.6466822  21.0466217  44.0245450  83.8067093
  12.9810022  48.5786138  71.0881740  12.2879267  48.6530493  70.4321776
  12.7361774  47.8146481  71.6103257  21.6523679  40.1381739  78.4921230
  21.9325432  39.4704928  79.1181657  22.4374286  40.3310834  77.9795894
  19.4557147  59.3140733  70.0546257  18.8831114  59.9330920  69.6016729
  20.0289941  59.8640094  70.5886179  25.5232537  48.5599373  82.2392805
  26.4749960  48.6597471  82.2605030  25.3535987  47.7677641  82.7490890
  23.5446916  45.6454956  82.4252206  22.9496849  45.9259969  81.7298695
  23.2596613  46.1348857  83.1968948  19.8403946  50.6501546  67.3962309
  20.7863050  50.5207754  67.4650727  19.4618191  49.9116207  67.8731737
  28.1515103  48.5716536  81.3993388  27.6354152  47.7874993  81.2123317
  29.0355052  48.2435253  81.5639908  25.8125830  42.3157552  77.3589201
  25.6150651  42.0072640  78.2432533  26.4225536  43.0419190  77.4887131
  19.7242638  54.7019292  88.8562966  20.6445648  54.8797891  89.0503013
  19.6892221  53.7575337  88.7042665  18.0246863  48.5751522  67.3317194
  17.1178318  48.2784635  67.4079908  18.3022844  48.2781340  66.4651481
   8.9424803  49.8957885  77.7816241   8.6227587  49.0423194  77.4890615
   8.3958231  50.1106463  78.5374208  12.7204711  52.6120326  81.4985747
  12.9390720  53.5437434  81.5173781  13.1330485  52.2528301  82.2840551
  19.6408928  43.1188412  73.4861436  18.8309657  42.7735497  73.8616682
  20.3293345  42.8095955  74.0749047  21.5699477  42.1966458  75.1085732
  22.1230515  42.6161912  75.7675755  21.8069563  41.2702207  75.1508688
  17.5932576  48.1853532  90.8888496  17.4929303  49.1347889  90.8200587
  17.3754118  47.8571771  90.0164566  16.7945647  45.4338457  67.4729174
  17.6564811  45.7593355  67.7324991  16.9795992  44.6469953  66.9602239
   8.8113063  53.5160797  79.7509362   8.1176535  53.1014750  79.2379317
   9.5586054  53.5581333  79.1542781  24.9478284  44.3066984  74.6164397
  24.3676953  44.9651788  74.2342449  24.6814217  43.4844328  74.2051814
  23.3981850  43.7072041  76.8185717  23.8981629  43.8188576  76.0100036
  24.0417458  43.4033094  77.4586525  17.4563846  51.6150671  89.7053558
  16.9730928  52.4151031  89.9117447  17.5424785  51.6258616  88.7521002
  10.7249806  53.4479051  77.6275377  10.7020494  53.5466738  76.6757260
  11.0350442  54.2944201  77.9492543  13.3837184  55.5055206  81.7421992
  14.3380437  55.4739148  81.6751923  13.1849707  55.0445829  82.5572218
  13.9736566  54.0756322  84.3092789  14.7929455  54.5700400  84.3327627
  14.2473373  53.1588290  84.2810357  23.7303162  46.4667074  73.6720745
  22.8429017  46.7516725  73.4540940  24.1457151  46.3060837  72.8248022
  27.0817698  46.4913595  77.3875084  27.8578088  46.9810047  77.6599701
  26.3565832  46.9171649  77.8446954  11.7387412  61.0474825  78.7592190
  11.6041880  60.2875226  78.1930188  11.3219475  61.7715725  78.2920978
  22.8746375  56.2311749  67.7668765  23.5782225  56.4361751  68.3826420
  22.1509024  56.7988511  68.0317848  14.8956538  61.9444142  78.9710632
  14.7788922  62.8889575  78.8689322  14.0748984  61.6417704  79.3596431
   9.2271480  48.4094456  85.0084986   9.8730344  47.8993410  85.4972212
   9.0188631  49.1463137  85.5828412  21.7524872  55.4775303  90.5077127
  22.6216032  55.6515955  90.1463762  21.2731624  56.2969720  90.3852856
  17.7475090  42.6734500  70.7608883  17.7353760  43.6176340  70.9177153
  18.6398512  42.4904646  70.4668344  15.9211052  62.5972404  82.1866561
  16.8238299  62.6296014  82.5033056  15.6948422  61.6672855  82.2012896
  21.5627210  39.2677277  75.0154819  20.7959606  38.7135764  75.1611502
  21.9737915  39.3399146  75.8768971  13.5668971  45.5562073  89.1060001
  14.4300432  45.1998877  89.3163325  12.9934382  45.2175967  89.7935405
  30.7026837  68.2926209  85.8070132  30.6915478  67.8979007  84.9350636
  30.8647477  67.5592281  86.4003903  29.8561993  64.6996922  87.3731444
  29.0795327  65.2590842  87.3634309  30.4952556  65.1853705  87.8946314
  28.1108365  67.5082375  86.9349411  28.8523050  68.0467419  86.6584235
  27.4045351  68.1348664  87.0920963  33.5863705  69.6511516  85.5321573
  33.9947061  69.2093926  84.7876205  32.8640966  69.0764143  85.7855766
  37.7881751  71.1467144  76.6418225  37.1032790  71.5266046  76.0915259
  37.8725601  71.7562471  77.3750173  35.0432683  68.7927103  83.2413569
  35.2549578  69.4358863  82.5647950  34.9962431  67.9589420  82.7735499
  26.8469729  64.6622023  87.7364721  26.2168390  65.3438304  87.9700118
  26.7405817  64.5505105  86.7917859  36.1578511  71.6699059  81.4135926
  36.9795955  71.2679246  81.1318608  36.1540914  71.5667293  82.3652042
  26.1250472  58.9642789  90.0989972  25.7317417  58.4108988  90.7737616
  26.9416612  59.2753368  90.4896490  31.2651608  73.5074776  87.5675959
  30.8215463  72.7211154  87.2496864  31.9268822  73.6953926  86.9019850
  33.3632846  73.7877576  85.5957360  33.3451322  74.6086457  85.1037629
  34.2852767  73.6631651  85.8207501  29.8205901  71.3021705  86.4380869
  30.3534237  70.5409994  86.2080177  29.2919982  71.0095357  87.1805023
  38.3518029  70.2342971  79.8834312  38.7854536  70.1418260  80.7317366
  39.0649610  70.2100471  79.2454328  39.2133579  70.2766671  82.4167198
  39.4069469  71.1812482  82.6626473  39.1134197  69.8174090  83.2505783
  34.2748687  70.4273414  87.9908078  34.1234194  70.1983966  87.0738162
  34.2653367  71.3844015  88.0039423  35.9840894  73.4592537  86.0684560
  35.9253440  72.7751757  85.4015143  36.3860412  74.2011527  85.6165186
  35.9858301  71.4232121  84.2998540  35.0985080  71.0858042  84.4224939
  36.5556852  70.6915152  84.5367305  31.9758138  75.9820407  83.4217942
  32.6886110  76.6167872  83.3493843  31.4848167  76.0784273  82.6057944
  30.8758911  67.0279269  88.5542100  30.1999548  66.9273398  89.2244475
  31.6986545  66.8718483  89.0178097  29.6181694  78.3346196  82.7899716
  30.1700002  78.4977818  83.5548801  29.9587887  78.9250634  82.1179741
  34.4692568  73.1607454  88.6448371  35.0132472  73.7737412  88.1503325
  33.8879413  73.7187032  89.1615384  32.7550081  76.2828172  79.7763398
  32.6301220  75.4817912  79.2674344  33.4129172  76.7774365  79.2877368
  34.8184989  74.0837192  81.4042948  33.8715325  73.9642543  81.3321275
  35.1667762  73.1959690  81.4869210  35.4265544  74.7018467  78.6912173
  36.3512092  74.4961328  78.5536624  35.2580848  74.4534868  79.6001515
  29.7647505  75.9004678  84.8048370  30.0734631  75.6553825  85.6771070
  30.5622987  76.1051316  84.3167241  27.3066517  62.0762385  88.7008555
  27.3554672  62.9524507  88.3186324  27.8489031  61.5339778  88.1280198
  37.7921362  72.6203508  87.9809692  37.0016906  72.6027647  87.4414191
  37.5554717  73.1591802  88.7358728  37.9119237  69.4695974  85.2942420
  37.9617242  69.3045982  86.2357943  37.8033161  68.6023233  84.9040301
  35.2023000  65.4526902  86.6101727  36.1032863  65.3133367  86.3185725
  35.2770974  65.6181357  87.5499904  39.4137434  71.8892916  85.5384442
  39.1222243  72.2522896  86.3747903  38.8009565  71.1759924  85.3597774
  30.5636393  70.0311209  88.8562966  31.4839402  70.2089808  89.0503013
  30.5285976  69.0867255  88.7042665  28.4326330  63.5145450  90.8888496
  28.3323057  64.4639807  90.8200587  28.2147873  63.1863689  90.0164566
  28.2957601  66.9442589  89.7053558  27.8124682  67.7442949  89.9117447
  28.3818540  66.9550533  88.7521002  24.8130320  69.4048239  84.3092789
  25.6323209  69.8992318  84.3327627  25.0867128  68.4880207  84.2810357
  20.0665234  63.7386373  85.0084986  20.7124098  63.2285327  85.4972212
  19.8582386  64.4755055  85.5828412  32.5918627  70.8067221  90.5077127
  33.4609786  70.9807873  90.1463762  32.1125378  71.6261638  90.3852856
  24.4062725  60.8853990  89.1060001  25.2694187  60.5290795  89.3163325
  23.8328136  60.5467885  89.7935405  44.2511102  82.5155847  79.9122402
  44.8889512  82.3962594  79.2085742  44.1331945  83.4636691  79.9710354
  41.0600809  82.4683275  79.8483926  40.7219320  82.3524339  78.9604461
  41.9290577  82.0674440  79.8284932  36.9187624  84.3218751  75.8380817
  36.3552489  84.2308688  75.0697105  36.8040019  83.5018656  76.3183310
  41.5420592  83.6218126  85.8070132  41.5309232  83.2270925  84.9350636
  41.7041231  82.8884199  86.4003903  34.4652056  85.8169943  78.6765038
  35.2573348  85.4760767  78.2611337  34.7048706  85.9264918  79.5967191
  42.4987183  87.9889719  71.1495282  41.8475163  88.5743799  70.7629296
  43.2931546  88.5195914  71.2090320  36.4242810  85.0778856  71.5482417
  37.1973686  84.5307843  71.4095292  36.7768209  85.9423105  71.7596878
  38.2627853  86.4055238  84.7549316  37.9717719  87.3100869  84.6395982
  38.8984837  86.4471766  85.4693385  39.1884060  83.7832087  81.3450675
  39.7847632  83.5588109  80.6307638  39.2459031  83.0416832  81.9476123
  38.7609088  81.2371522  69.1800866  39.0134609  80.7153043  68.4184329
  37.8233647  81.0737668  69.2827550  43.8052371  80.2407300  76.9875610
  44.5915460  79.8226724  76.6366027  44.0691075  81.1453393  77.1557258
  43.9762448  85.6780151  71.6864266  43.3408281  85.7514777  72.3985171
  43.6459855  86.2673750  71.0083346  49.2060798  80.1782534  77.8908588
  49.9385970  79.6081751  78.1246418  48.4500154  79.7904134  78.3315094
  38.4805377  83.1399628  71.3825241  38.3641635  82.4644531  72.0506326
  38.5907637  82.6532002  70.5657394  40.8236918  82.6009775  75.0871931
  40.4595125  82.0740396  75.7984852  41.6804034  82.2108244  74.9138416
  46.7286218  73.8904108  82.3503197  46.3969543  74.7599519  82.1264412
  46.1331832  73.5740392  83.0297227  40.4642405  77.6299675  70.0833279
  40.6316807  78.4979911  70.4503750  40.2739574  77.7926957  69.1594568
  43.2217738  86.0916654  81.7499110  42.9218461  86.9941693  81.6414917
  42.8768797  85.8248837  82.6020262  36.6730219  82.5430451  77.7835814
  35.7480716  82.4106665  77.9913506  36.9214633  83.3224670  78.2805756
  46.6214882  78.6099194  79.4296547  45.7131759  78.5414602  79.1355308
  46.5702477  79.0871139  80.2578372  40.4431626  80.0857332  71.0679946
  40.3231251  80.5314383  71.9065426  39.7484214  80.4342650  70.5093484
  34.0339030  82.1863724  78.6179603  34.1631412  82.4398203  79.5319015
  33.3536482  82.7791432  78.2984258  38.2038518  92.8560974  74.7170077
  38.1262547  93.8068799  74.7958558  37.6000161  92.5106847  75.3745004
  40.6955747  80.0288840  87.3731444  39.9189081  80.5882760  87.3634309
  41.3346310  80.5145623  87.8946314  48.4876528  76.8115632  81.2074421
  47.8450908  77.1048166  80.5614215  47.9831457  76.6968553  82.0127617
  46.1416692  80.5578806  71.8960280  47.0534548  80.7906192  71.7207978
  45.6326339  81.1415850  71.3335359  38.9502120  82.8374293  86.9349411
  39.6916804  83.3759337  86.6584235  38.2439105  83.4640582  87.0920963
  44.4257459  84.9803433  85.5321573  44.8340815  84.5385844  84.7876205
  43.7034721  84.4056061  85.7855766  40.7788529  79.9176040  82.9055130
  41.6249725  80.3415454  83.0489779  40.7187167  79.2609664  83.5993693
  44.7486274  85.5404624  79.2873861  44.1195136  85.7050338  78.5849929
  44.3611936  85.9546234  80.0584826  48.6275506  86.4759062  76.6418225
  47.9426544  86.8557963  76.0915259  48.7119355  87.0854389  77.3750173
  43.9287975  77.5780409  84.5636303  43.6848907  78.3322469  84.0270579
  44.2047905  77.9565756  85.3983550  45.8826437  84.1219021  83.2413569
  46.0943333  84.7650781  82.5647950  45.8356186  83.2881337  82.7735499
  43.4852666  76.7336842  80.1450141  42.6237145  77.0318095  80.4366878
  43.5115101  76.9507240  79.2131174  40.3014236  85.2779032  76.5523947
  40.7652581  85.5566735  75.7628569  40.0371034  84.3762477  76.3697037
  37.1938317  84.8250514  79.4903710  37.7639674  85.2537782  78.8521194
  37.7846429  84.5433098  80.1887896  39.2383122  81.4002184  73.3613512
  39.9407165  81.8523228  73.8287438  38.9063750  80.7586003  73.9893405
  37.6863483  79.9913941  87.7364721  37.0562144  80.6730222  87.9700118
  37.5799571  79.8797023  86.7917859  32.9808456  79.6585737  78.6630645
  32.1907510  79.9143266  78.1870756  33.4719703  80.4734075  78.7682686
  46.9972265  86.9990976  81.4135926  47.8189709  86.5971164  81.1318608
  46.9934668  86.8959210  82.3652042  34.9323201  80.0230316  75.6214122
  34.1354365  80.1349011  76.1397618  34.7048793  80.3616969  74.7555013
  40.7628869  86.5475020  83.5696637  40.8273301  87.0095427  84.4054808
  40.0539793  85.9172385  83.6978946  31.2646159  79.9116228  81.0945636
  31.5154197  80.7963238  81.3603212  31.8005707  79.7320829  80.3220728
  55.0878258  83.3429725  77.7620898  54.3341967  82.7737123  77.6064902
  55.2225800  83.3092389  78.7091532  40.4776887  88.2143127  73.4375617
  40.3422561  89.0594663  73.8660465  41.0186699  88.4162405  72.6741551
  36.9644226  74.2934707  90.0989972  36.5711172  73.7400906  90.7737616
  37.7810366  74.6045285  90.4896490  33.9306284  85.7318565  74.0103542
  34.4430804  86.5261815  74.1609107  34.5828997  85.0344856  73.9437144
  35.7401169  88.8484321  76.0926295  35.9167797  89.7702286  75.9047279
  36.5358002  88.5342741  76.5220675  39.8812187  75.7092586  87.6910229
  40.6221901  76.3099739  87.6114691  40.1130110  74.9670224  87.1328271
  35.0253525  80.8948953  85.9688458  34.9107040  79.9934211  86.2695557
  34.1698043  81.1412650  85.6173275  42.1045363  88.8366694  87.5675959
  41.6609217  88.0503072  87.2496864  42.7662576  89.0245844  86.9019850
  36.8632484  90.3662495  82.0936638  37.4139909  90.2379559  81.3213631
  36.0243960  90.6657384  81.7431530  44.2026601  89.1169494  85.5957360
  44.1845076  89.9378375  85.1037629  45.1246521  88.9923569  85.8207501
  40.6599655  86.6313623  86.4380869  41.1927992  85.8701911  86.2080177
  40.1313736  86.3387275  87.1805023  43.8269350  71.7373689  81.9674510
  43.4833619  72.6275331  81.8913621  44.1948313  71.5475347  81.1044095
  31.8955201  84.0607219  74.7863113  32.7330423  84.4704228  74.5696820
  32.0733468  83.1206662  74.7563306  43.7919633  81.7282300  70.4746946
  43.2766256  82.4986905  70.7135333  43.5196941  81.0547436  71.0980007
  41.3766744  76.5732001  75.5332184  40.5208340  76.1838851  75.3537823
  41.7893696  76.6523962  74.6731969  42.9065890  74.1078344  79.9323744
  42.4030686  74.0708479  79.1191549  43.1996497  75.0171087  79.9920400
  39.1508776  74.1917074  78.9389925  40.0161773  73.9959883  78.5795815
  39.2186285  73.9627426  79.8659282  48.7653907  84.4814655  72.4100119
  47.9883350  84.1425814  71.9655281  49.4445388  84.4867278  71.7355084
  43.5805936  79.6009392  72.3006727  43.2756072  79.9155541  73.1516870
  44.5336378  79.6790812  72.3434060  42.0252368  85.7599616  73.9499681
  41.4973729  85.0252375  73.6372918  41.5239871  86.5374292  73.7039649
  47.0045214  83.9548636  79.0666727  46.3468888  84.6447897  79.1546856
  47.8085613  84.3445068  79.4100713  36.7571095  76.4219282  76.3106292
  37.3314847  76.1994463  75.5779485  37.3442078  76.4907976  77.0634894
  45.8150673  82.3093009  77.1170669  46.3282554  82.9423001  77.6192378
  46.4651897  81.7094204  76.7514029  37.0840683  78.4523743  70.3302177
  36.2477995  78.7898429  70.6511452  36.9445452  78.3172723  69.3929314
  39.0593763  73.2960531  75.0381362  38.4058176  72.9809548  74.4137976
  39.0174237  72.6736271  75.7641185  40.1704968  83.5779826  66.9534654
  39.2632030  83.3469079  67.1525803  40.6676000  82.7817445  67.1408635
  43.0773047  92.2877333  69.8731340  42.4034746  92.5909030  70.4816298
  43.4638869  93.0906413  69.5236797  42.2931504  79.7842464  79.3629009
  41.3754065  80.0057411  79.2050697  42.7091647  79.8588775  78.5040717
  43.0766551  81.1833880  74.4931690  43.8238370  81.6955277  74.1838812
  43.3458141  80.8617933  75.3536083  41.3493201  83.6792421  71.4758644
  40.4404421  83.3951453  71.5731114  41.3788285  84.0991499  70.6161951
  46.5812469  87.2899010  75.2449811  46.1274796  86.4489920  75.3015002
  45.9506436  87.9260409  75.5824592  45.5245388  78.2190996  76.4750479
  44.7868145  77.7068382  76.8060721  45.7772162  77.7791378  75.6633756
  45.0245408  89.1275507  76.1799630  45.3168382  89.6880564  75.4611995
  45.5344029  89.4204068  76.9352789  31.9181372  81.3997935  75.4573846
  31.7205772  80.8067295  74.7324913  31.3628036  81.0950145  76.1749785
  39.8978096  81.2921041  77.5768439  39.9526705  80.3394878  77.5010916
  39.0869298  81.4480480  78.0609738  41.0469289  85.2201164  68.8146722
  40.6088719  84.5037023  68.3552360  41.7879730  85.4477279  68.2531814
  37.8370455  79.9098101  75.3358818  37.0238321  80.2092272  75.7424010
  38.3329450  79.5153790  76.0533300  39.9879033  89.9055858  77.2693083
  39.9455212  90.1316704  76.3401615  40.9041732  89.6719232  77.4178884
  43.4344667  80.3739925  84.1673712  43.7894055  80.6011399  85.0268178
  44.0816798  80.7058302  83.5450967  49.1642404  83.4958361  74.8723041
  49.0260303  83.6859957  73.9444230  48.8078623  84.2577744  75.3291092
  37.3284530  77.4816457  80.9520053  37.9683910  77.3405216  80.2543016
  36.4962061  77.1950970  80.5758655  49.1911784  85.5634888  79.8834312
  49.6248290  85.4710177  80.7317366  49.9043364  85.5392389  79.2454328
  38.1044834  86.7818887  77.0655045  38.8985433  86.2869207  76.8637620
  37.3936526  86.2536750  76.7022751  42.9239679  89.1636982  81.4167413
  42.9776701  89.7327919  82.1845129  42.0554460  89.3338867  81.0521450
  34.4127598  80.9261969  73.1414798  33.4825186  80.8646424  73.3584760
  34.5085070  80.4037921  72.3451439  34.3313147  77.4516781  75.7293040
  34.5919964  78.3662115  75.6202200  35.1530319  76.9841224  75.8789653
  35.8038072  78.8654539  82.8991864  36.4761125  78.6571901  82.2504513
  34.9767858  78.6676625  82.4597097  50.0527333  85.6058589  82.4167198
  50.2463223  86.5104400  82.6626473  49.9527951  85.1466008  83.2505783
  41.7063644  75.4916480  84.9157525  41.0591559  76.1906429  84.8222002
  42.4764659  75.9252624  85.2833773  45.1142442  85.7565332  87.9908078
  44.9627948  85.5275883  87.0738162  45.1047121  86.7135933  88.0039423
  41.8827778  83.3297244  82.9754345  42.8119838  83.4808404  82.8023312
  41.4618808  83.4181265  82.1202991  40.6816110  87.3547909  80.7452883
  40.5427196  86.9866693  81.6178821  39.8930706  87.8695548  80.5736840
  41.2764262  92.4557005  72.0878419  41.4516018  91.9845049  72.9024042
  40.5897050  93.0822772  72.3159680  42.2321325  86.7329512  78.1341720
  41.8971158  86.6930282  79.0299370  41.7325271  86.0674228  77.6612131
  36.2065569  82.1397142  83.6594301  36.0685367  81.4077380  84.2605841
  37.1170493  82.0506042  83.3778489  45.1680517  84.0785546  68.4078780
  44.5509688  83.3532374  68.3111833  44.6997005  84.8394906  68.0645854
  38.8347870  81.8517101  83.1477981  39.5447488  81.2110293  83.1064600
  38.7917178  82.1029996  84.0704162  46.8234649  88.7884454  86.0684560
  46.7647195  88.1043674  85.4015143  47.2254167  89.5303444  85.6165186
  37.5476804  78.8382319  84.9673621  37.0114161  78.3873057  85.6195217
  36.9593512  78.9728228  84.2244085  35.8425347  95.6046368  78.8618279
  36.0821946  96.2364892  79.5397298  34.9994544  95.2534408  79.1483638
  36.9579063  78.2970970  67.5300084  36.0808529  78.1759771  67.1662331
  37.4336816  77.5057049  67.2778973  46.8252056  86.7524038  84.2998540
  45.9378835  86.4149960  84.4224939  47.3950607  86.0207069  84.5367305
  28.4781203  83.0848130  77.6241591  29.1652243  82.7709860  77.0362607
  28.3229332  83.9889495  77.3508843  33.2815925  77.9738327  82.0526615
  33.1974114  77.3663996  81.3177025  32.4598631  78.4647345  82.0536111
  40.3553209  91.4125491  81.2659783  40.2823381  92.2180462  81.7779088
  39.9130602  91.6117456  80.4407805  40.1442989  90.6497261  74.7762605
  39.3610511  91.1918941  74.8700829  40.8435734  91.1671240  75.1756846
  43.4539639  76.4591890  77.4196810  43.9508338  75.7061852  77.0997880
  42.6826620  76.4956207  76.8540019  51.3069396  82.1632256  79.0615102
  51.2959273  83.0456971  78.6909035  50.4386776  81.8103806  78.8669639
  42.8151893  91.3112325  83.4217942  43.5279865  91.9459789  83.3493843
  42.3241921  91.4076191  82.6057944  44.5369420  85.2163577  74.9935234
  43.6025698  85.3365040  74.8239938  44.7146088  84.3136044  74.7295243
  40.0374608  78.6009273  77.1468495  39.6672395  78.0480313  77.8349400
  40.5333700  77.9967407  76.5943495  47.9241971  81.0580897  75.5285268
  48.3902423  81.8908888  75.4545570  48.3749471  80.5925878  76.2330526
  37.8663806  89.0606768  84.2423513  38.5673266  89.6943251  84.3952907
  37.3958921  89.4021500  83.4819152  45.9918202  87.4024718  72.5271420
  46.2678046  87.2881312  73.4365294  45.1222701  87.0042203  72.4883593
  45.8958634  73.4261484  79.5676169  44.9821714  73.6565710  79.7358376
  46.3251735  73.5099928  80.4190201  45.6665092  81.6151376  82.0676063
  45.0136542  81.8627283  81.4128516  46.0445472  80.8015514  81.7338540
  42.6272266  91.6511069  76.1704233  42.8094661  90.8332725  76.6331986
  43.4505252  91.8678761  75.7329123  42.9614432  90.5779254  73.4319282
  43.4902198  90.0671708  72.8189444  43.2242651  90.2621784  74.2964815
  41.7152665  82.3571187  88.5542100  41.0393302  82.2565316  89.2244475
  42.5380299  82.2010400  89.0178097  33.4631524  88.5943123  81.1754615
  34.0484961  87.8486811  81.3082520  33.2656363  88.9047080  82.0591279
  36.3170180  91.6294371  76.1917058  35.6480555  92.1140498  75.7081098
  36.1783049  91.8763591  77.1060436  28.0549179  81.1648723  79.8959059
  28.0933279  80.6312314  80.6896177  27.5489472  80.6383929  79.2770036
  40.4575448  93.6638114  82.7899716  41.0093756  93.8269736  83.5548801
  40.7981642  94.2542552  82.1179741  35.4339941  76.0113264  83.3921601
  35.4981268  76.8728095  82.9798999  35.3707062  75.3987265  82.6593959
  34.9092214  78.0836396  87.0394635  35.5364253  77.7013474  87.6532159
  34.0520133  77.8650598  87.4050328  45.3086322  88.4899372  88.6448371
  45.8526226  89.1029330  88.1503325  44.7273167  89.0478950  89.1615384
  43.5943835  91.6120090  79.7763398  43.4694975  90.8109829  79.2674344
  44.2522927  92.1066283  79.2877368  35.2152004  77.9668822  78.9540539
  34.4938589  78.5804790  78.8148012  36.0045259  78.5026587  78.8757184
  45.6578744  89.4129110  81.4042948  44.7109079  89.2934461  81.3321275
  46.0061517  88.5251608  81.4869210  38.0178317  75.3023249  85.2281190
  38.5412719  75.5485545  85.9907500  37.7990650  76.1343283  84.8084328
  42.6625177  89.2081826  77.6047301  42.5150140  88.2798533  77.7854871
  43.4878671  89.2301917  77.1204376  36.5287421  77.8599893  73.4627793
  36.8683494  78.3885814  72.7406401  36.9759542  78.1980299  74.2386359
  46.2659299  90.0310385  78.6912173  47.1905846  89.8253246  78.5536624
  46.0974602  89.7826786  79.6001515  39.2230862  76.2436944  82.9130861
  38.8827683  75.4444757  83.3151541  38.5169868  76.5438655  82.3407694
  39.8747334  73.3286256  81.3658184  40.6973403  72.8546734  81.2437074
  40.1185398  74.1076740  81.8656870  38.5155569  76.3574515  71.6621086
  39.2363931  76.7355767  71.1584802  37.8920873  77.0763391  71.7656063
  42.6586691  77.0619664  72.5979418  42.8750306  77.9444301  72.2968246
  42.1780759  76.6705877  71.8685060  37.3985913  80.0205377  79.1750162
  37.2530493  80.3345680  80.0674444  36.9211116  80.6390277  78.6221061
  39.2582296  77.0107925  79.2231052  39.2443864  76.1149018  78.8863350
  39.9754724  77.0178588  79.8569338  41.1108426  77.4445265  81.2684179
  40.8526204  78.3662336  81.2668510  40.5793467  77.0475699  81.9584644
  46.0554615  90.5496052  74.0474265  46.2291493  89.9842475  73.2948117
  46.5483506  91.3496947  73.8653755  31.8731575  82.5610721  82.1137824
  31.3285043  83.3370529  82.2458098  32.7510925  82.9081526  81.9556945
  38.6619192  75.8922305  74.4918622  38.7835103  74.9638951  74.6909510
  38.3721234  75.9060991  73.5796938  41.5310382  73.5777215  77.6285342
  41.5532079  73.6416549  76.6737322  41.9478441  72.7381724  77.8225848
  51.9094006  83.3132475  75.6664565  52.3525152  82.5639800  75.2683688
  51.0320517  83.3042611  75.2838297  47.0429788  89.8662816  71.1471163
  47.7380692  90.4869509  71.3658478  47.3852938  89.0158168  71.4223541
  32.6597597  81.6880617  85.0067980  31.9179333  81.8363253  85.5932611
  32.3390341  81.9488883  84.1434730  48.9421211  87.3162522  72.6758494
  49.4672535  87.6549795  71.9507814  48.8543563  86.3809537  72.4921628
  40.6041259  91.2296596  84.8048370  40.9128386  90.9845742  85.6771070
  41.4016741  91.4343234  84.3167241  40.6261871  93.3834505  77.0353747
  40.1866862  92.8910884  77.7286604  41.3769988  92.8407473  76.7945822
  33.1054210  89.5746046  77.0378375  33.9312230  89.2749818  76.6577019
  32.7548262  88.8053669  77.4868164  38.0735744  88.9272514  79.1076049
  37.4515753  88.2643219  78.8078277  38.7440611  88.9533646  78.4249696
  31.3062816  87.4932373  77.9967309  30.4694724  87.0654547  77.8151310
  31.2786461  87.6864816  78.9338100  38.1460271  77.4054302  88.7008555
  38.1948427  78.2816425  88.3186324  38.6882785  76.8631695  88.1280198
  48.6315117  87.9495426  87.9809692  47.8410661  87.9319564  87.4414191
  48.3948471  88.4883719  88.7358728  48.7512992  84.7987892  85.2942420
  48.8010997  84.6337899  86.2357943  48.6426915  83.9315151  84.9040301
  37.6349251  87.4776438  72.5834509  37.7837371  88.1611902  71.9301182
  38.4415694  87.4581528  73.0983965  46.0416754  80.7818820  86.6101727
  46.9426617  80.6425285  86.3185725  46.1164729  80.9473275  87.5499904
  40.3759560  78.1585675  85.4554913  39.5062869  78.4519241  85.1837502
  40.6119040  78.7426120  86.1762177  50.2531189  87.2184834  85.5384442
  49.9615997  87.5814814  86.3747903  49.6403320  86.5051842  85.3597774
  51.4526871  84.7837713  78.0587012  52.2873762  85.2227517  78.2224572
  51.5886000  84.3076367  77.2395258  48.5018377  82.3417448  84.0064500
  48.9772499  82.5345094  83.1983351  47.5783942  82.3976634  83.7607884
  35.3901884  83.5041615  73.5895578  35.1447925  82.6003945  73.7875788
  35.5597798  83.5058766  72.6475056  43.0798593  74.3765292  82.9720334
  43.5980537  75.1126319  82.6466822  42.7253726  74.6829285  83.8067093
  41.1344656  89.9724568  70.0546257  40.5618623  90.5914755  69.6016729
  41.7077450  90.5223930  70.5886179  47.2020046  79.2183208  82.2392805
  48.1537469  79.3181306  82.2605030  47.0323496  78.4261477  82.7490890
  45.2234425  76.3038791  82.4252206  44.6284358  76.5843804  81.7298695
  44.9384122  76.7932692  83.1968948  44.3541916  90.2561718  71.1854839
  45.2872589  90.1907280  71.3887714  44.2665129  91.0917985  70.7269372
  46.9829933  89.5727589  68.1458787  46.9043564  89.2387452  69.0394544
  47.8039599  90.0649357  68.1450259  49.6808124  82.4389328  81.3535105
  49.6484444  81.5005329  81.5394789  50.2908747  82.5173365  80.6200930
  41.5191455  81.3085381  67.3962309  42.4650559  81.1791589  67.4650727
  41.1405700  80.5700043  67.8731737  49.8302612  79.2300371  81.3993388
  49.3141661  78.4458828  81.2123317  50.7142561  78.9019088  81.5639908
  55.4984674  83.5005335  80.4941142  56.2288062  83.2390623  81.0548845
  54.8891619  82.7634057  80.5343210  53.5799971  81.6413197  81.0915593
  52.8533134  81.5069162  80.4832085  53.1647258  81.9490026  81.8972311
  41.4030147  85.3603127  88.8562966  42.3233157  85.5381726  89.0503013
  41.3679730  84.4159172  88.7042665  39.7034372  79.2335357  67.3317194
  38.7965827  78.9368470  67.4079908  39.9810353  78.9365175  66.4651481
  30.6212312  80.5541721  77.7816241  30.3015096  79.7007029  77.4890615
  30.0745740  80.7690299  78.5374208  34.3992220  83.2704162  81.4985747
  34.6178229  84.2021269  81.5173781  34.8117993  82.9112136  82.2840551
  41.3196437  73.7772247  73.4861436  40.5097166  73.4319332  73.8616682
  42.0080854  73.4679791  74.0749047  43.2486986  72.8550294  75.1085732
  43.8018024  73.2745747  75.7675755  43.4857072  71.9286042  75.1508688
  39.2720085  78.8437367  90.8888496  39.1716812  79.7931724  90.8200587
  39.0541627  78.5155606  90.0164566  30.4900572  84.1744632  79.7509362
  29.7964044  83.7598585  79.2379317  31.2373563  84.2165169  79.1542781
  46.6265793  74.9650819  74.6164397  46.0464462  75.6235623  74.2342449
  46.3601726  74.1428164  74.2051814  45.0769359  74.3655877  76.8185717
  45.5769138  74.4772411  76.0100036  45.7204967  74.0616930  77.4586525
  39.1351355  82.2734506  89.7053558  38.6518437  83.0734866  89.9117447
  39.2212294  82.2842451  88.7521002  32.4037315  84.1062886  77.6275377
  32.3808003  84.2050573  76.6757260  32.7137951  84.9528037  77.9492543
  35.0624693  86.1639041  81.7421992  36.0167946  86.1322983  81.6751923
  34.8637216  85.7029665  82.5572218  35.6524075  84.7340157  84.3092789
  36.4716964  85.2284236  84.3327627  35.9260882  83.8172125  84.2810357
  45.4090671  77.1250909  73.6720745  44.5216526  77.4100560  73.4540940
  45.8244660  76.9644673  72.8248022  48.7605207  77.1497430  77.3875084
  49.5365597  77.6393883  77.6599701  48.0353341  77.5755485  77.8446954
  51.1977766  77.8625050  78.4449025  51.7922256  77.6220785  77.7342333
  51.2704349  77.1432180  79.0722561  33.4174921  91.7058660  78.7592190
  33.2829389  90.9459061  78.1930188  33.0006984  92.4299560  78.2920978
  44.5533884  86.8895584  67.7668765  45.2569734  87.0945587  68.3826420
  43.8296533  87.4572346  68.0317848  45.3831695  82.6405445  73.8871035
  45.3266896  83.0973997  73.0478667  45.9360037  81.8796130  73.7093878
  49.1936501  78.4295177  74.7121155  48.9373435  78.0291813  75.5429362
  48.5689369  79.1438971  74.5871294  53.5048838  81.1691250  77.2192446
  52.9448396  81.2384440  77.9924008  52.8992342  80.9932235  76.4991942
  36.5744047  92.6027977  78.9710632  36.4576431  93.5473410  78.8689322
  35.7536493  92.3001539  79.3596431  46.4620582  87.3278113  69.8167225
  47.2966186  86.8959312  69.6344700  46.3004925  87.1560127  70.7444119
  46.1166474  83.8310227  71.1823564  46.0615278  83.6654498  70.2412008
  45.4912529  84.5386259  71.3385754  30.9058989  79.0678291  85.0084986
  31.5517852  78.5577245  85.4972212  30.6976140  79.8046973  85.5828412
  43.4312381  86.1359138  90.5077127  44.3003541  86.3099791  90.1463762
  42.9519133  86.9553555  90.3852856  37.5998561  93.2556239  82.1866561
  38.5025808  93.2879850  82.5033056  37.3735931  92.3256690  82.2012896
  39.3552163  92.0087226  78.8476639  38.4047794  92.0089088  78.7341012
  39.6584649  91.2619961  78.3312674  35.2456480  76.2145908  89.1060001
  36.1087941  75.8582713  89.3163325  34.6721891  75.8759803  89.7935405
  55.0904857  97.8447764  79.9122402  55.7283267  97.7254512  79.2085742
  54.9725700  98.7928608  79.9710354  51.8994563  97.7975192  79.8483926
  51.5613075  97.6816257  78.9604461  52.7684331  97.3966358  79.8284932
  47.7581379  99.6510669  75.8380817  47.1946244  99.5600606  75.0697105
  47.6433774  98.8310573  76.3183310  52.3814346  98.9510044  85.8070132
  52.3702987  98.5562842  84.9350636  52.5434986  98.2176117  86.4003903
  45.3045811 101.1461860  78.6765038  46.0967103 100.8052685  78.2611337
  45.5442461 101.2556835  79.5967191  53.3380938 103.3181637  71.1495282
  52.6868917 103.9035717  70.7629296  54.1325300 103.8487831  71.2090320
  47.2636565 100.4070774  71.5482417  48.0367441  99.8599761  71.4095292
  47.6161964 101.2715023  71.7596878  49.1021607 101.7347156  84.7549316
  48.8111473 102.6392787  84.6395982  49.7378592 101.7763684  85.4693385
  50.0277814  99.1124004  81.3450675  50.6241386  98.8880027  80.6307638
  50.0852786  98.3708750  81.9476123  49.6002842  96.5663440  69.1800866
  49.8528363  96.0444961  68.4184329  48.6627402  96.4029585  69.2827550
  54.6446125  95.5699218  76.9875610  55.4309215  95.1518641  76.6366027
  54.9084830  96.4745310  77.1557258  54.8156203 101.0072068  71.6864266
  54.1802036 101.0806695  72.3985171  54.4853609 101.5965667  71.0083346
  60.0454552  95.5074451  77.8908588  60.7779724  94.9373668  78.1246418
  59.2893908  95.1196052  78.3315094  49.3199131  98.4691546  71.3825241
  49.2035389  97.7936449  72.0506326  49.4301391  97.9823920  70.5657394
  51.6630672  97.9301693  75.0871931  51.2988879  97.4032314  75.7984852
  52.5197788  97.5400162  74.9138416  57.5679973  89.2196025  82.3503197
  57.2363298  90.0891436  82.1264412  56.9725586  88.9032309  83.0297227
  51.3036159  92.9591593  70.0833279  51.4710561  93.8271829  70.4503750
  51.1133328  93.1218874  69.1594568  54.0611492 101.4208571  81.7499110
  53.7612215 102.3233610  81.6414917  53.7162552 101.1540755  82.6020262
  47.5123974  97.8722368  77.7835814  46.5874470  97.7398582  77.9913506
  47.7608387  98.6516588  78.2805756  57.4608636  93.9391112  79.4296547
  56.5525513  93.8706520  79.1355308  57.4096232  94.4163057  80.2578372
  51.2825380  95.4149250  71.0679946  51.1625005  95.8606301  71.9065426
  50.5877968  95.7634568  70.5093484  44.8732785  97.5155642  78.6179603
  45.0025166  97.7690121  79.5319015  44.1930236  98.1083350  78.2984258
  51.5349502  95.3580757  87.3731444  50.7582836  95.9174677  87.3634309
  52.1740065  95.8437540  87.8946314  59.3270283  92.1407550  81.2074421
  58.6844663  92.4340083  80.5614215  58.8225211  92.0260470  82.0127617
  56.9810446  95.8870723  71.8960280  57.8928302  96.1198110  71.7207978
  56.4720093  96.4707767  71.3335359  49.7895874  98.1666211  86.9349411
  50.5310559  98.7051255  86.6584235  49.0832860  98.7932499  87.0920963
  55.2651214 100.3095351  85.5321573  55.6734570  99.8677762  84.7876205
  54.5428475  99.7347979  85.7855766  51.6182284  95.2467958  82.9055130
  52.4643479  95.6707371  83.0489779  51.5580922  94.5901582  83.5993693
  55.5880028 100.8696542  79.2873861  54.9588891 101.0342256  78.5849929
  55.2005691 101.2838151  80.0584826  59.4669260 101.8050980  76.6418225
  58.7820299 102.1849881  76.0915259  59.5513110 102.4146306  77.3750173
  54.7681729  92.9072326  84.5636303  54.5242661  93.6614387  84.0270579
  55.0441660  93.2857674  85.3983550  56.7220192  99.4510939  83.2413569
  56.9337087 100.0942698  82.5647950  56.6749940  98.6173255  82.7735499
  54.3246421  92.0628759  80.1450141  53.4630900  92.3610013  80.4366878
  54.3508856  92.2799158  79.2131174  51.1407990 100.6070950  76.5523947
  51.6046336 100.8858653  75.7628569  50.8764788  99.7054394  76.3697037
  48.0332071 100.1542431  79.4903710  48.6033428 100.5829700  78.8521194
  48.6240183  99.8725016  80.1887896  50.0776876  96.7294102  73.3613512
  50.7800920  97.1815146  73.8287438  49.7457505  96.0877921  73.9893405
  48.5257238  95.3205859  87.7364721  47.8955899  96.0022140  87.9700118
  48.4193326  95.2088940  86.7917859  43.8202210  94.9877655  78.6630645
  43.0301264  95.2435183  78.1870756  44.3113458  95.8025993  78.7682686
  57.8366020 102.3282894  81.4135926  58.6583464 101.9263081  81.1318608
  57.8328423 102.2251128  82.3652042  45.7716956  95.3522234  75.6214122
  44.9748119  95.4640928  76.1397618  45.5442548  95.6908886  74.7555013
  51.6022623 101.8766937  83.5696637  51.6667056 102.3387345  84.4054808
  50.8933547 101.2464302  83.6978946  42.1039913  95.2408145  81.0945636
  42.3547952  96.1255155  81.3603212  42.6399462  95.0612747  80.3220728
  65.9272013  98.6721642  77.7620898  65.1735721  98.1029041  77.6064902
  66.0619554  98.6384307  78.7091532  51.3170641 103.5435045  73.4375617
  51.1816316 104.3886581  73.8660465  51.8580454 103.7454322  72.6741551
  47.8037981  89.6226625  90.0989972  47.4104926  89.0692823  90.7737616
  48.6204121  89.9337203  90.4896490  44.7700038 101.0610483  74.0103542
  45.2824559 101.8553733  74.1609107  45.4222751 100.3636773  73.9437144
  50.7205942  91.0384504  87.6910229  51.4615655  91.6391657  87.6114691
  50.9523864  90.2962142  87.1328271  45.8647280  96.2240871  85.9688458
  45.7500795  95.3226128  86.2695557  45.0091797  96.4704568  85.6173275
  54.6663105  87.0665607  81.9674510  54.3227374  87.9567248  81.8913621
  55.0342067  86.8767264  81.1044095  42.7348955  99.3899137  74.7863113
  43.5724177  99.7996145  74.5696820  42.9127223  98.4498579  74.7563306
  54.6313387  97.0574218  70.4746946  54.1160011  97.8278822  70.7135333
  54.3590696  96.3839354  71.0980007  52.2160498  91.9023919  75.5332184
  51.3602095  91.5130769  75.3537823  52.6287450  91.9815879  74.6731969
  53.7459645  89.4370262  79.9323744  53.2424441  89.4000397  79.1191549
  54.0390252  90.3463005  79.9920400  49.9902531  89.5208992  78.9389925
  50.8555528  89.3251800  78.5795815  50.0580040  89.2919343  79.8659282
  59.6047661  99.8106572  72.4100119  58.8277104  99.4717732  71.9655281
  60.2839142  99.8159196  71.7355084  54.4199690  94.9301310  72.3006727
  54.1149826  95.2447459  73.1516870  55.3730133  95.0082730  72.3434060
  52.8646122 101.0891533  73.9499681  52.3367484 100.3544293  73.6372918
  52.3633625 101.8666210  73.7039649  57.8438968  99.2840554  79.0666727
  57.1862643  99.9739815  79.1546856  58.6479368  99.6736986  79.4100713
  47.5964850  91.7511199  76.3106292  48.1708602  91.5286381  75.5779485
  48.1835832  91.8199894  77.0634894  56.6544427  97.6384926  77.1170669
  57.1676309  98.2714918  77.6192378  57.3045651  97.0386122  76.7514029
  47.9234437  93.7815660  70.3302177  47.0871749  94.1190347  70.6511452
  47.7839207  93.6464640  69.3929314  49.8987518  88.6252448  75.0381362
  49.2451930  88.3101466  74.4137976  49.8567992  88.0028189  75.7641185
  51.0098723  98.9071743  66.9534654  50.1025784  98.6760997  67.1525803
  51.5069754  98.1109363  67.1408635  53.1325258  95.1134382  79.3629009
  52.2147819  95.3349329  79.2050697  53.5485402  95.1880692  78.5040717
  53.9160306  96.5125798  74.4931690  54.6632125  97.0247195  74.1838812
  54.1851895  96.1909850  75.3536083  52.1886956  99.0084338  71.4758644
  51.2798175  98.7243371  71.5731114  52.2182040  99.4283417  70.6161951
  57.4206223 102.6190928  75.2449811  56.9668550 101.7781838  75.3015002
  56.7900190 103.2552326  75.5824592  56.3639143  93.5482914  76.4750479
  55.6261900  93.0360300  76.8060721  56.6165916  93.1083295  75.6633756
  55.8639163 104.4567424  76.1799630  56.1562137 105.0172482  75.4611995
  56.3737783 104.7495985  76.9352789  56.4650770  86.3259166  77.0692248
  56.7709647  85.4656529  76.7818163  57.1903375  86.9176786  76.8691242
  42.7575126  96.7289852  75.4573846  42.5599526  96.1359213  74.7324913
  42.2021790  96.4242063  76.1749785  50.7371850  96.6212959  77.5768439
  50.7920460  95.6686795  77.5010916  49.9263052  96.7772398  78.0609738
  51.8863044 100.5493082  68.8146722  51.4482474  99.8328941  68.3552360
  52.6273485 100.7769197  68.2531814  48.6764210  95.2390019  75.3358818
  47.8632075  95.5384189  75.7424010  49.1723204  94.8445707  76.0533300
  50.8272788 105.2347776  77.2693083  50.7848967 105.4608622  76.3401615
  51.7435487 105.0011150  77.4178884  54.2738422  95.7031843  84.1673712
  54.6287809  95.9303316  85.0268178  54.9210553  96.0350220  83.5450967
  60.0036159  98.8250279  74.8723041  59.8654057  99.0151875  73.9444230
  59.6472377  99.5869662  75.3291092  48.1678285  92.8108374  80.9520053
  48.8077664  92.6697133  80.2543016  47.3355815  92.5242888  80.5758655
  60.0305538 100.8926806  79.8834312  60.4642045 100.8002095  80.7317366
  60.7437119 100.8684306  79.2454328  48.9438589 102.1110805  77.0655045
  49.7379187 101.6161125  76.8637620  48.2330281 101.5828668  76.7022751
  53.7633433 104.4928900  81.4167413  53.8170455 105.0619836  82.1845129
  52.8948214 104.6630785  81.0521450  45.2521352  96.2553886  73.1414798
  44.3218940  96.1938342  73.3584760  45.3478824  95.7329839  72.3451439
  45.1706901  92.7808699  75.7293040  45.4313718  93.6954032  75.6202200
  45.9924073  92.3133142  75.8789653  46.6431826  94.1946456  82.8991864
  47.3154880  93.9863818  82.2504513  45.8161613  93.9968542  82.4597097
  60.8921088 100.9350507  82.4167198  61.0856978 101.8396317  82.6626473
  60.7921706 100.4757926  83.2505783  52.5457398  90.8208397  84.9157525
  51.8985313  91.5198347  84.8222002  53.3158414  91.2544541  85.2833773
  52.7221533  98.6589162  82.9754345  53.6513593  98.8100322  82.8023312
  52.3012563  98.7473183  82.1202991  51.5209865 102.6839827  80.7452883
  51.3820950 102.3158611  81.6178821  50.7324461 103.1987466  80.5736840
  53.0715080 102.0621429  78.1341720  52.7364912 102.0222199  79.0299370
  52.5719025 101.3966145  77.6612131  47.0459324  97.4689059  83.6594301
  46.9079122  96.7369298  84.2605841  47.9564247  97.3797959  83.3778489
  56.0074271  99.4077464  68.4078780  55.3903442  98.6824292  68.3111833
  55.5390760 100.1686824  68.0645854  49.6741624  97.1809019  83.1477981
  50.3841243  96.5402211  83.1064600  49.6310933  97.4321913  84.0704162
  48.3870558  94.1674237  84.9673621  47.8507915  93.7164975  85.6195217
  47.7987267  94.3020145  84.2244085  47.7972817  93.6262888  67.5300084
  46.9202284  93.5051689  67.1662331  48.2730570  92.8348966  67.2778973
  39.3174957  98.4140048  77.6241591  40.0045997  98.1001778  77.0362607
  39.1623086  99.3181412  77.3508843  44.1209680  93.3030244  82.0526615
  44.0367868  92.6955914  81.3177025  43.2992386  93.7939263  82.0536111
  54.2933393  91.7883808  77.4196810  54.7902093  91.0353770  77.0997880
  53.5220375  91.8248124  76.8540019  62.1463151  97.4924173  79.0615102
  62.1353027  98.3748889  78.6909035  61.2780530  97.1395724  78.8669639
  55.3763174 100.5455495  74.9935234  54.4419453 100.6656957  74.8239938
  55.5539843  99.6427962  74.7295243  50.8768362  93.9301191  77.1468495
  50.5066150  93.3772231  77.8349400  51.3727455  93.3259324  76.5943495
  58.7635725  96.3872814  75.5285268  59.2296178  97.2200806  75.4545570
  59.2143226  95.9217796  76.2330526  48.7057561 104.3898686  84.2423513
  49.4067020 105.0235169  84.3952907  48.2352676 104.7313417  83.4819152
  56.8311957 102.7316636  72.5271420  57.1071800 102.6173230  73.4365294
  55.9616455 102.3334120  72.4883593  56.7352388  88.7553401  79.5676169
  55.8215468  88.9857628  79.7358376  57.1645490  88.8391845  80.4190201
  56.5058847  96.9443293  82.0676063  55.8530297  97.1919201  81.4128516
  56.8839227  96.1307431  81.7338540  53.4666021 106.9802986  76.1704233
  53.6488415 106.1624642  76.6331986  54.2899007 107.1970679  75.7329123
  53.8008186 105.9071172  73.4319282  54.3295953 105.3963626  72.8189444
  54.0636406 105.5913702  74.2964815  38.8942934  96.4940641  79.8959059
  38.9327033  95.9604232  80.6896177  38.3883226  95.9675847  79.2770036
  46.2733696  91.3405182  83.3921601  46.3375022  92.2020012  82.9798999
  46.2100816  90.7279183  82.6593959  45.7485968  93.4128314  87.0394635
  46.3758007  93.0305391  87.6532159  44.8913887  93.1942516  87.4050328
  42.5251511  95.2204743  72.9712990  42.8204952  94.3115422  72.9180044
  41.6239547  95.1992483  72.6493992  54.4337590 106.9412007  79.7763398
  54.3088729 106.1401747  79.2674344  55.0916681 107.4358201  79.2877368
  46.0545758  93.2960740  78.9540539  45.3332344  93.9096707  78.8148012
  46.8439014  93.8318505  78.8757184  56.4972498 104.7421027  81.4042948
  55.5502834 104.6226379  81.3321275  56.8455271 103.8543525  81.4869210
  48.8572072  90.6315166  85.2281190  49.3806473  90.8777463  85.9907500
  48.6384405  91.4635201  84.8084328  44.2539353  92.9018841  73.0952315
  43.9252059  92.0216220  72.9127421  44.6078723  92.8466510  73.9828704
  53.5018932 104.5373744  77.6047301  53.3543894 103.6090451  77.7854871
  54.3272425 104.5593834  77.1204376  47.3681176  93.1891811  73.4627793
  47.7077248  93.7177732  72.7406401  47.8153296  93.5272217  74.2386359
  57.1053053 105.3602302  78.6912173  58.0299601 105.1545164  78.5536624
  56.9368357 105.1118703  79.6001515  50.0624617  91.5728861  82.9130861
  49.7221437  90.7736674  83.3151541  49.3563623  91.8730572  82.3407694
  50.7141089  88.6578174  81.3658184  51.5367158  88.1838652  81.2437074
  50.9579152  89.4368658  81.8656870  49.3549323  91.6866432  71.6621086
  50.0757686  92.0647685  71.1584802  48.7314627  92.4055309  71.7656063
  53.4980446  92.3911581  72.5979418  53.7144060  93.2736219  72.2968246
  53.0174513  91.9997795  71.8685060  48.2379667  95.3497294  79.1750162
  48.0924248  95.6637597  80.0674444  47.7604871  95.9682195  78.6221061
  50.0976050  92.3399842  79.2231052  50.0837619  91.4440936  78.8863350
  50.8148478  92.3470506  79.8569338  51.9502181  92.7737183  81.2684179
  51.6919959  93.6954253  81.2668510  51.4187221  92.3767617  81.9584644
  56.8948370 105.8787970  74.0474265  57.0685247 105.3134392  73.2948117
  57.3877261 106.6788865  73.8653755  42.7125329  97.8902639  82.1137824
  42.1678798  98.6662447  82.2458098  43.5904679  98.2373443  81.9556945
  49.5012946  91.2214223  74.4918622  49.6228857  90.2930869  74.6909510
  49.2114988  91.2352909  73.5796938  52.3704136  88.9069133  77.6285342
  52.3925833  88.9708466  76.6737322  52.7872195  88.0673642  77.8225848
  62.7487761  98.6424393  75.6664565  63.1918907  97.8931718  75.2683688
  61.8714271  98.6334529  75.2838297  57.8823542 105.1954734  71.1471163
  58.5774447 105.8161427  71.3658478  58.2246692 104.3450085  71.4223541
  43.4991351  97.0172535  85.0067980  42.7573087  97.1655170  85.5932611
  43.1784096  97.2780801  84.1434730  59.7814965 102.6454440  72.6758494
  60.3066289 102.9841712  71.9507814  59.6937318 101.7101455  72.4921628
  48.9129498 104.2564432  79.1076049  48.2909507 103.5935137  78.8078277
  49.5834365 104.2825564  78.4249696  42.1456570 102.8224290  77.9967309
  41.3088478 102.3946465  77.8151310  42.1180215 103.0156734  78.9338100
  48.9854026  92.7346220  88.7008555  49.0342181  93.6108343  88.3186324
  49.5276540  92.1923613  88.1280198  48.4743005 102.8068355  72.5834509
  48.6231125 103.4903820  71.9301182  49.2809448 102.7873445  73.0983965
  56.8810509  96.1110738  86.6101727  57.7820371  95.9717203  86.3185725
  56.9558483  96.2765193  87.5499904  51.2153314  93.4877592  85.4554913
  50.3456623  93.7811159  85.1837502  51.4512794  94.0718037  86.1762177
  62.2920625 100.1129631  78.0587012  63.1267517 100.5519435  78.2224572
  62.4279754  99.6368284  77.2395258  59.3412131  97.6709366  84.0064500
  59.8166253  97.8637012  83.1983351  58.4177697  97.7268552  83.7607884
  46.2295638  98.8333533  73.5895578  45.9841680  97.9295863  73.7875788
  46.3991553  98.8350683  72.6475056  53.9192348  89.7057209  82.9720334
  54.4374292  90.4418236  82.6466822  53.5647481  90.0121203  83.8067093
  45.4991286  94.5661891  71.0881740  44.8060530  94.6406246  70.4321776
  45.2543037  93.8022234  71.6103257  54.1704942  86.1257492  78.4921230
  54.4506696  85.4580681  79.1181657  54.9555549  86.3186588  77.9795894
  51.9738411 105.3016486  70.0546257  51.4012378 105.9206673  69.6016729
  52.5471204 105.8515848  70.5886179  58.0413800  94.5475126  82.2392805
  58.9931223  94.6473224  82.2605030  57.8717251  93.7553394  82.7490890
  56.0628180  91.6330709  82.4252206  55.4678112  91.9135722  81.7298695
  55.7777877  92.1224610  83.1968948  55.1935670 105.5853636  71.1854839
  56.1266344 105.5199198  71.3887714  55.1058883 106.4209903  70.7269372
  57.8223687 104.9019506  68.1458787  57.7437319 104.5679370  69.0394544
  58.6433354 105.3941274  68.1450259  60.5201878  97.7681246  81.3535105
  60.4878198  96.8297246  81.5394789  61.1302502  97.8465282  80.6200930
  52.3585209  96.6377299  67.3962309  53.3044314  96.5083507  67.4650727
  51.9799454  95.8991960  67.8731737  60.6696367  94.5592289  81.3993388
  60.1535415  93.7750746  81.2123317  61.5536315  94.2311006  81.5639908
  58.3307094  88.3033305  77.3589201  58.1331915  87.9948393  78.2432533
  58.9406799  89.0294944  77.4887131  66.3378428  98.8297252  80.4941142
  67.0681817  98.5682541  81.0548845  65.7285374  98.0925974  80.5343210
  64.4193725  96.9705115  81.0915593  63.6926889  96.8361080  80.4832085
  64.0041012  97.2781944  81.8972311  50.5428126  94.5627275  67.3317194
  49.6359582  94.2660388  67.4079908  50.8204107  94.2657093  66.4651481
  41.4606067  95.8833638  77.7816241  41.1408851  95.0298947  77.4890615
  40.9139495  96.0982217  78.5374208  45.2385974  98.5996079  81.4985747
  45.4571984  99.5313187  81.5173781  45.6511748  98.2404054  82.2840551
  52.1590192  89.1064165  73.4861436  51.3490920  88.7611250  73.8616682
  52.8474609  88.7971708  74.0749047  54.0880740  88.1842211  75.1085732
  54.6411779  88.6037665  75.7675755  54.3250827  87.2577960  75.1508688
  50.1113839  94.1729285  90.8888496  50.0110566  95.1223642  90.8200587
  49.8935382  93.8447524  90.0164566  49.3126911  91.4214210  67.4729174
  50.1746075  91.7469108  67.7324991  49.4977255  90.6345706  66.9602239
  41.3294327  99.5036550  79.7509362  40.6357798  99.0890503  79.2379317
  42.0767318  99.5457086  79.1542781  57.4659547  90.2942737  74.6164397
  56.8858216  90.9527541  74.2342449  57.1995480  89.4720081  74.2051814
  55.9163114  89.6947794  76.8185717  56.4162892  89.8064329  76.0100036
  56.5598722  89.3908847  77.4586525  43.2431069  99.4354804  77.6275377
  43.2201757  99.5342491  76.6757260  43.5531706 100.2819954  77.9492543
  45.9018447 101.4930959  81.7421992  46.8561701 101.4614901  81.6751923
  45.7030971 101.0321582  82.5572218  46.4917829 100.0632075  84.3092789
  47.3110718 100.5576153  84.3327627  46.7654637  99.1464043  84.2810357
  56.2484425  92.4542827  73.6720745  55.3610280  92.7392478  73.4540940
  56.6638414  92.2936590  72.8248022  59.5998961  92.4789348  77.3875084
  60.3759352  92.9685800  77.6599701  58.8747096  92.9047402  77.8446954
  62.0371520  93.1916967  78.4449025  62.6316011  92.9512703  77.7342333
  62.1098104  92.4724098  79.0722561  55.3927639 102.2187502  67.7668765
  56.0963489 102.4237504  68.3826420  54.6690288 102.7864264  68.0317848
  56.2225449  97.9697363  73.8871035  56.1660650  98.4265914  73.0478667
  56.7753792  97.2088048  73.7093878  60.0330255  93.7587095  74.7121155
  59.7767189  93.3583730  75.5429362  59.4083123  94.4730889  74.5871294
  64.3442593  96.4983168  77.2192446  63.7842151  96.5676357  77.9924008
  63.7386096  96.3224153  76.4991942  57.3014336 102.6570031  69.8167225
  58.1359940 102.2251229  69.6344700  57.1398679 102.4852045  70.7444119
  56.9560228  99.1602144  71.1823564  56.9009032  98.9946416  70.2412008
  56.3306284  99.8678177  71.3385754  41.7452743  94.3970209  85.0084986
  42.3911607  93.8869163  85.4972212  41.5369894  95.1338890  85.5828412
  50.2656354  88.6610253  70.7608883  50.2535024  89.6052093  70.9177153
  51.1579776  88.4780399  70.4668344  54.0808473  85.2553030  75.0154819
  53.3140869  84.7011517  75.1611502  54.4919178  85.3274899  75.8768971
  46.0850234  91.5437826  89.1060001  46.9481696  91.1874630  89.3163325
  45.5115645  91.2051720  89.7935405  62.1429914 108.2883510  70.0833279
  62.3104316 109.1563747  70.4503750  61.9527083 108.4510792  69.1594568
  67.8204201 111.2162641  71.8960280  68.7322057 111.4490028  71.7207978
  67.3113848 111.7999685  71.3335359  63.0554253 107.2315836  75.5332184
  62.1995849 106.8422687  75.3537823  63.4681205 107.3107797  74.6731969
  60.8296285 104.8500909  78.9389925  61.6949282 104.6543718  78.5795815
  60.8973794 104.6211261  79.8659282  65.2593445 110.2593228  72.3006727
  64.9543581 110.5739377  73.1516870  66.2123887 110.3374647  72.3434060
  58.4358604 107.0803117  76.3106292  59.0102356 106.8578299  75.5779485
  59.0229587 107.1491812  77.0634894  60.7381272 103.9544366  75.0381362
  60.0845684 103.6393383  74.4137976  60.6961746 103.3320107  75.7641185
  67.3044525 101.6551084  77.0692248  67.6103402 100.7948447  76.7818163
  68.0297130 102.2468704  76.8691242  65.1327148 107.1175725  77.4196810
  65.6295847 106.3645688  77.0997880  64.3614129 107.1540042  76.8540019
  61.7162117 109.2593108  77.1468495  61.3459904 108.7064149  77.8349400
  62.2121209 108.6551242  76.5943495  60.1943077 107.0158350  71.6621086
  60.9151440 107.3939603  71.1584802  59.5708382 107.7347227  71.7656063
  64.3374200 107.7203499  72.5979418  64.5537815 108.6028137  72.2968246
  63.8568268 107.3289712  71.8685060  60.3406701 106.5506140  74.4918622
  60.4622612 105.6222787  74.6909510  60.0508743 106.5644826  73.5796938
  63.2097891 104.2361051  77.6285342  63.2319588 104.3000384  76.6737322
  63.6265950 103.3965559  77.8225848  65.0098697 101.4549410  78.4921230
  65.2900450 100.7872599  79.1181657  65.7949303 101.6478505  77.9795894
  69.1700848 103.6325222  77.3589201  68.9725669 103.3240310  78.2432533
  69.7800554 104.3586861  77.4887131  61.3821881 109.8919193  67.3317194
  60.4753336 109.5952305  67.4079908  61.6597862 109.5949011  66.4651481
  62.9983946 104.4356082  73.4861436  62.1884675 104.0903167  73.8616682
  63.6868363 104.1263626  74.0749047  64.9274495 103.5134129  75.1085732
  65.4805533 103.9329583  75.7675755  65.1644581 102.5869877  75.1508688
  60.1520665 106.7506128  67.4729174  61.0139829 107.0761026  67.7324991
  60.3371009 105.9637624  66.9602239  68.3053302 105.6234654  74.6164397
  67.7251971 106.2819458  74.2342449  68.0389234 104.8011999  74.2051814
  66.7556868 105.0239712  76.8185717  67.2556647 105.1356247  76.0100036
  67.3992476 104.7200765  77.4586525  67.0878180 107.7834745  73.6720745
  66.2004035 108.0684395  73.4540940  67.5032169 107.6228508  72.8248022
  61.1050108 103.9902171  70.7608883  61.0928778 104.9344011  70.9177153
  61.9973530 103.8072316  70.4668344  64.9202228 100.5844948  75.0154819
  64.1534624 100.0303434  75.1611502  65.3312933 100.6566816  75.8768971
  11.7329840  13.5342216  66.6367708  12.3708250  13.4148964  65.9331048
  11.6150683  14.4823060  66.6955660   8.5419546  13.4869644  66.5729233
   8.2038058  13.3710709  65.6849768   9.4109315  13.0860809  66.5530239
   4.4006362  15.3405121  62.5626124   3.8371227  15.2495058  61.7942412
   4.2858757  14.5205025  63.0428616   9.0239329  14.6404496  72.5315438
   9.0127970  14.2457294  71.6595942   9.1859969  13.9070569  73.1249210
   1.9470794  16.8356312  65.4010344   2.7392086  16.4947137  64.9856644
   2.1867444  16.9451287  66.3212498   9.9805921  19.0076088  57.8740589
   9.3293901  19.5930169  57.4874603  10.7750284  19.5382283  57.9335626
   3.9061548  16.0965226  58.2727723   4.6792424  15.5494213  58.1340599
   4.2586947  16.9609475  58.4842185   5.7446591  17.4241608  71.4794622
   5.4536457  18.3287239  71.3641289   6.3803575  17.4658135  72.1938692
   6.6702797  14.8018456  68.0695982   7.2666370  14.5774479  67.3552945
   6.7277769  14.0603202  68.6721430  11.2871109  11.2593670  63.7120916
  12.0734198  10.8413093  63.3611333  11.5509813  12.1639762  63.8802565
  11.4581186  16.6966520  58.4109573  10.8227019  16.7701147  59.1230478
  11.1278592  17.2860119  57.7328652  16.6879536  11.1968903  64.6153895
  17.4204708  10.6268120  64.8491724  15.9318891  10.8090504  65.0560400
   5.9624115  14.1585998  58.1070548   5.8460373  13.4830901  58.7751632
   6.0726374  13.6718372  57.2902701   8.3055655  13.6196145  61.8117237
   7.9413863  13.0926766  62.5230159   9.1622771  13.2294614  61.6383723
  10.7036476  17.1103023  68.4744416  10.4037199  18.0128062  68.3660223
  10.3587535  16.8435207  69.3265569  14.1033619   9.6285564  66.1541853
  13.1950497   9.5600972  65.8600614  14.0521215  10.1057508  66.9823679
   7.9250363  11.1043702  57.7925253   7.8049989  11.5500753  58.6310733
   7.2302952  11.4529020  57.2338791   5.6857255  23.8747344  61.4415384
   5.6081285  24.8255169  61.5203864   5.0818899  23.5293216  62.0990310
  15.9695266   7.8302002  67.9319727  15.3269646   8.1234535  67.2859522
  15.4650194   7.7154922  68.7372924  13.6235429  11.5765175  58.6205587
  14.5353286  11.8092562  58.4453284  13.1145077  12.1602219  58.0580665
   6.4320857  13.8560662  73.6594718   7.1735542  14.3945706  73.3829541
   5.7257843  14.4826951  73.8166270  11.9076197  15.9989803  72.2566879
  12.3159553  15.5572213  71.5121512  11.1853459  15.4242430  72.5101072
   8.2607267  10.9362410  69.6300436   9.1068462  11.3601823  69.7735085
   8.2005905  10.2796034  70.3238999  12.2305012  16.5590994  66.0119168
  11.6013874  16.7236708  65.3095236  11.8430674  16.9732603  66.7830132
  16.1094244  17.4945431  63.3663532  15.4245282  17.8744333  62.8160565
  16.1938093  18.1040758  64.0995480  11.4106713   8.5966778  71.2881610
  11.1667644   9.3508839  70.7515886  11.6866643   8.9752126  72.1228857
  13.3645175  15.1405390  69.9658875  13.5762071  15.7837150  69.2893256
  13.3174924  14.3067707  69.4980805   7.7832974  16.2965402  63.2769253
   8.2471319  16.5753105  62.4873876   7.5189772  15.3948846  63.0942344
   4.6757055  15.8436883  66.2149016   5.2458412  16.2724152  65.5766501
   5.2665167  15.5619468  66.9133202   6.7201860  12.4188554  60.0858818
   7.4225903  12.8709598  60.5532745   6.3882488  11.7772373  60.7138711
  14.4791003  18.0177346  68.1381233  15.3008447  17.6157533  67.8563914
  14.4753406  17.9145580  69.0897349   8.2447607  17.5661389  70.2941943
   8.3092039  18.0281796  71.1300115   7.5358531  16.9358754  70.4224253
  22.5696996  14.3616094  64.4866204  21.8160705  13.7923492  64.3310209
  22.7044537  14.3278759  65.4336839   7.9595624  19.2329497  60.1620924
   7.8241299  20.0781032  60.5905771   8.5005437  19.4348774  59.3986857
   1.4125022  16.7504935  60.7348849   1.9249542  17.5448185  60.8854413
   2.0647735  16.0531225  60.6682450   3.2219906  19.8670691  62.8171602
   3.3986535  20.7888656  62.6292586   4.0176740  19.5529110  63.2465982
   9.5864101  19.8553063  74.2921266   9.1427955  19.0689442  73.9742170
  10.2481314  20.0432214  73.6265156   4.3451222  21.3848865  68.8181944
   4.8958647  21.2565928  68.0458938   3.5062698  21.6843754  68.4676837
  11.6845339  20.1355863  72.3202667  11.6663814  20.9564744  71.8282936
  12.6065259  20.0109938  72.5452808   8.1418393  17.6499993  73.1626175
   8.6746730  16.8888281  72.9325483   7.6132474  17.3573644  73.9050330
  11.2738371  12.7468670  57.1992252  10.7584994  13.5173274  57.4380640
  11.0015679  12.0733806  57.8225314  16.2472645  15.5001024  59.1345426
  15.4702088  15.1612184  58.6900588  16.9264126  15.5053647  58.4600391
  11.0624674  10.6195762  59.0252033  10.7574809  10.9341911  59.8762177
  12.0155116  10.6977182  59.0679366   9.5071106  16.7785985  60.6744987
   8.9792467  16.0438745  60.3618225   9.0058608  17.5560661  60.4284956
  14.4863952  14.9735006  65.7912034  13.8287626  15.6634267  65.8792162
  15.2904351  15.3631437  66.1346020  13.2969410  13.3279378  63.8415975
  13.8101292  13.9609370  64.3437685  13.9470634  12.7280574  63.4759335
   7.6523706  14.5966195  53.6779960   6.7450768  14.3655449  53.8771109
   8.1494738  13.8003815  53.8653942  10.5591785  23.3063703  56.5976647
   9.8853483  23.6095399  57.2061604  10.9457607  24.1092783  56.2482104
   9.7750241  10.8028834  66.0874316   8.8572803  11.0243781  65.9296004
  10.1910385  10.8775144  65.2286023  10.5585289  12.2020249  61.2176996
  11.3057108  12.7141647  60.9084118  10.8276879  11.8804302  62.0781390
   8.8311939  14.6978790  58.2003950   7.9223159  14.4137823  58.2976420
   8.8607023  15.1177869  57.3407257  14.0631207  18.3085380  61.9695118
  13.6093534  17.4676290  62.0260308  13.4325173  18.9446778  62.3069898
  13.0064126   9.2377366  63.1995785  12.2686883   8.7254752  63.5306028
  13.2590900   8.7977747  62.3879062  12.5064146  20.1461876  62.9044936
  12.7987120  20.7066933  62.1857302  13.0162766  20.4390437  63.6598095
   7.3796833  12.3107411  64.3013746   7.4345443  11.3581247  64.2256222
   6.5688035  12.4666850  64.7855044   8.5288027  16.2387534  55.5392029
   8.0907457  15.5223393  55.0797666   9.2698468  16.4663649  54.9777120
   7.4697771  20.9242227  63.9938389   7.4273950  21.1503074  63.0646921
   8.3860470  20.6905602  64.1424191  10.9163405  11.3926295  70.8919019
  11.2712793  11.6197768  71.7513484  11.5635536  11.7244672  70.2696274
  16.6461142  14.5144731  61.5968348  16.5079040  14.7046327  60.6689537
  16.2897361  15.2764114  62.0536399  16.6730521  16.5821258  66.6079619
  17.1067028  16.4896547  67.4562673  17.3862102  16.5578758  65.9699635
   5.5863572  17.8005256  63.7900352   6.3804170  17.3055577  63.5882927
   4.8755264  17.2723120  63.4268058  10.4058416  20.1823352  68.1412720
  10.4595439  20.7514288  68.9090436   9.5373198  20.3525237  67.7766757
  17.5346071  16.6244959  69.1412504  17.7281961  17.5290769  69.3871779
  17.4346689  16.1652378  69.9751090  12.5961180  16.7751701  74.7153385
  12.4446686  16.5462253  73.7983469  12.5865859  17.7322303  74.7284730
   9.3646516  14.3483614  69.6999652  10.2938576  14.4994774  69.5268619
   8.9437546  14.4367635  68.8448298   8.1634848  18.3734278  67.4698189
   8.0245934  18.0053063  68.3424127   7.3749444  18.8881918  67.2982147
   8.7583000  23.4743375  58.8123726   8.9334756  23.0031418  59.6269348
   8.0715788  24.1009141  59.0404986   9.7140063  17.7515881  64.8587027
   9.3789896  17.7116651  65.7544677   9.2144009  17.0860597  64.3857437
  12.6499255  15.0971916  55.1324087  12.0328425  14.3718744  55.0357139
  12.1815743  15.8581276  54.7891161   6.3166608  12.8703471  69.8723288
   7.0266226  12.2296663  69.8309906   6.2735916  13.1216365  70.7949469
  14.3053386  19.8070824  72.7929867  14.2465932  19.1230044  72.1260450
  14.7072905  20.5489814  72.3410493   3.3244085  26.6232738  65.5863586
   3.5640683  27.2551262  66.2642604   2.4813282  26.2720778  65.8728945
  14.3070794  17.7710408  71.0243847  13.4197572  17.4336330  71.1470246
  14.8769345  17.0393439  71.2612612   7.8371947  22.4311860  67.9905090
   7.7642118  23.2366832  68.5024394   7.3949340  22.6303826  67.1653111
   7.6261727  21.6683630  61.5007911   6.8429249  22.2105310  61.5946136
   8.3254472  22.1857610  61.9002153  18.7888134  13.1818625  65.7860408
  18.7778010  14.0643341  65.4154341  17.9205514  12.8290176  65.5914945
  10.2970631  22.3298694  70.1463249  11.0098603  22.9646159  70.0739150
   9.8060659  22.4262560  69.3303250  12.0188157  16.2349947  61.7180540
  11.0844436  16.3551409  61.5485245  12.1964826  15.3322414  61.4540550
  15.4060709  12.0767266  62.2530574  15.8721161  12.9095258  62.1790877
  15.8568209  11.6112248  62.9575833   5.3482544  20.0793138  70.9668819
   6.0492004  20.7129621  71.1198214   4.8777659  20.4207869  70.2064459
  13.4736940  18.4211087  59.2516726  13.7496784  18.3067682  60.1610600
  12.6041439  18.0228572  59.2128899  13.1483830  12.6337745  68.7921370
  12.4955280  12.8813653  68.1373822  13.5264210  11.8201883  68.4583847
  10.1091004  22.6697438  62.8949540  10.2913398  21.8519094  63.3577292
  10.9323990  22.8865131  62.4574430  10.4433169  21.5965623  60.1564588
  10.9720936  21.0858078  59.5434751  10.7061389  21.2808154  61.0210121
   0.9450262  19.6129493  67.8999922   1.5303699  18.8673181  68.0327826
   0.7475101  19.9233449  68.7836586   3.7988917  22.6480740  62.9162364
   3.1299293  23.1326868  62.4326404   3.6601787  22.8949961  63.8305743
   7.9394186  24.6824484  69.5145023   8.4912494  24.8456105  70.2794108
   8.2800379  25.2728921  68.8425048  12.7905060  19.5085741  75.3693677
  13.3344964  20.1215699  74.8748632  12.2091905  20.0665320  75.8860690
  11.0762573  22.6306459  66.5008705  10.9513713  21.8296199  65.9919650
  11.7341664  23.1252652  66.0122675  13.1397482  20.4315479  68.1288255
  12.1927817  20.3120830  68.0566582  13.4880255  19.5437977  68.2114516
  10.1443915  20.2268195  64.3292607   9.9968877  19.2984903  64.5100177
  10.9697408  20.2488286  63.8449682  13.7478037  21.0496754  65.4157480
  14.6724584  20.8439616  65.2781931  13.5793340  20.8013155  66.3246821
  13.5373353  21.5682422  60.7719571  13.7110230  21.0028844  60.0193424
  14.0302244  22.3683316  60.5899061  19.3912744  14.3318845  62.3909871
  19.8343890  13.5826170  61.9928994  18.5139254  14.3228981  62.0083603
  14.5248525  20.8849186  57.8716470  15.2199430  21.5055879  58.0903784
  14.8671676  20.0344537  58.1468848  16.4239949  18.3348892  59.4003800
  16.9491273  18.6736164  58.6753121  16.3362301  17.3995907  59.2166935
   8.0859997  22.2482965  71.5293677   8.3947124  22.0032112  72.4016377
   8.8835479  22.4529604  71.0412547   8.1080609  24.4020875  63.7599054
   7.6685600  23.9097254  64.4531910   8.8588726  23.8593842  63.5191129
   5.5554481  19.9458884  65.8321355   4.9334491  19.2829589  65.5323583
   6.2259348  19.9720016  65.1495003  16.1133855  18.9681795  74.7054998
  15.3229398  18.9505934  74.1659498  15.8767209  19.5070089  75.4604035
  16.2331730  15.8174262  72.0187727  16.2829735  15.6524269  72.9603250
  16.1245653  14.9501521  71.6285608   5.1167988  18.4962807  59.3079816
   5.2656109  19.1798272  58.6546489   5.9234432  18.4767897  59.8229272
  13.5235492  11.8005190  73.3347034  14.4245355  11.6611654  73.0431031
  13.5983467  11.9659644  74.2745211  17.7349926  18.2371203  72.2629749
  17.4434735  18.6001184  73.0993209  17.1222058  17.5238211  72.0843081
  18.9345609  15.8024083  64.7832319  19.7692500  16.2413887  64.9469879
  19.0704738  15.3262736  63.9640565  15.9837115  13.3603818  70.7309807
  16.4591236  13.5531464  69.9228658  15.0602680  13.4163004  70.4853190
   8.6163394  20.9910938  56.7791563   8.0437361  21.6101125  56.3262035
   9.1896188  21.5410299  57.3131485  14.6838784  10.2369578  68.9638112
  15.6356207  10.3367675  68.9850336  14.5142234   9.4447846  69.4736196
  12.7053163   7.3225161  69.1497513  12.1103095   7.6030174  68.4544002
  12.4202860   7.8119062  69.9214254  11.8360654  21.2748088  57.9100146
  12.7691327  21.2093650  58.1133021  11.7483866  22.1104355  57.4514678
  14.4648670  20.5913958  54.8704093  14.3862302  20.2573822  55.7639851
  15.2858337  21.0835726  54.8695565  17.1626862  13.4575697  68.0780412
  17.1303182  12.5191698  68.2640096  17.7727485  13.5359734  67.3446237
   9.0010192  12.3271750  54.1207616   9.9469297  12.1977959  54.1896034
   8.6224437  11.5886412  54.5977044  17.3121350  10.2486741  68.1238695
  16.7960399   9.4645198  67.9368624  18.1961299   9.9205458  68.2885214
  22.9803411  14.5191704  67.2186449  23.7106800  14.2576992  67.7794152
  22.3710357  13.7820426  67.2588517  21.0618708  12.6599567  67.8160900
  20.3351872  12.5255532  67.2077391  20.6465995  12.9676396  68.6217618
   8.8848885  16.3789497  75.5808273   9.8051894  16.5568096  75.7748319
   8.8498468  15.4345542  75.4287972   2.5443430  17.1825411  68.4667298
   3.4986684  17.1509353  68.3997230   2.3455954  16.7216034  69.2817524
   3.1342812  15.7526527  71.0338096   3.9535701  16.2470605  71.0572933
   3.4079620  14.8358495  71.0055663  12.8909409   8.1437279  60.3966051
  12.0035264   8.4286930  60.1786246  13.3063398   7.9831042  59.5493328
  16.2423945   8.1683800  64.1120391  17.0184335   8.6580252  64.3845008
  15.5172079   8.5941854  64.5692260  18.6796503   8.8811419  65.1694331
  19.2740994   8.6407155  64.4587640  18.7523087   8.1618550  65.7967868
  12.0352622  17.9081954  54.4914071  12.7388472  18.1131956  55.1071727
  11.3115271  18.4758715  54.7563155  12.8650432  13.6591815  60.6116342
  12.8085634  14.1160366  59.7723974  13.4178775  12.8982499  60.4339184
  16.6755238   9.4481547  61.4366461  16.4192173   9.0478182  62.2674669
  16.0508106  10.1625341  61.3116600  20.9867576  12.1877620  63.9437753
  20.4267134  12.2570809  64.7169315  20.3811080  12.0118605  63.2237249
   4.0562785  23.6214347  65.6955939   3.9395169  24.5659780  65.5934629
   3.2355231  23.3187909  66.0841738  13.9439320  18.3464483  56.5412532
  14.7784923  17.9145681  56.3590006  13.7823662  18.1746496  57.4689426
  13.5985212  14.8496596  57.9068871  13.5434015  14.6840868  56.9657315
  12.9731267  15.5572629  58.0631061  10.9131119  17.1545508  77.2322434
  11.7822279  17.3286160  76.8709069  10.4337870  17.9739925  77.1098163
   5.0817299  24.2742609  68.9111867   5.9844546  24.3066219  69.2278362
   4.8554669  23.3443060  68.9258203   6.8370901  23.0273596  65.5721946
   5.8866532  23.0275457  65.4586318   7.1403387  22.2806330  65.0557980
  22.5723595  28.8634134  66.6367708  23.2102005  28.7440881  65.9331048
  22.4544437  29.8114978  66.6955660  19.3813301  28.8161562  66.5729233
  19.0431812  28.7002627  65.6849768  20.2503069  28.4152727  66.5530239
  15.2400117  30.6697038  62.5626124  14.6764982  30.5786975  61.7942412
  15.1252512  29.8496943  63.0428616  19.8633084  29.9696414  72.5315438
  19.8521725  29.5749212  71.6595942  20.0253723  29.2362486  73.1249210
  12.7864549  32.1648230  65.4010344  13.5785840  31.8239055  64.9856644
  13.0261199  32.2743205  66.3212498  20.8199675  34.3368006  57.8740589
  20.1687655  34.9222087  57.4874603  21.6144038  34.8674201  57.9335626
  14.7455302  31.4257143  58.2727723  15.5186178  30.8786130  58.1340599
  15.0980701  32.2901393  58.4842185  16.5840345  32.7533526  71.4794622
  16.2930211  33.6579156  71.3641289  17.2197329  32.7950053  72.1938692
  17.5096552  30.1310374  68.0695982  18.1060124  29.9066396  67.3552945
  17.5671523  29.3895120  68.6721430  17.0821580  27.5849809  55.9046173
  17.3347101  27.0631331  55.1429636  16.1446139  27.4215955  56.0072857
  22.1264863  26.5885588  63.7120916  22.9127952  26.1705011  63.3611333
  22.3903567  27.4931680  63.8802565  22.2974940  32.0258438  58.4109573
  21.6620773  32.0993065  59.1230478  21.9672347  32.6152037  57.7328652
  27.5273290  26.5260821  64.6153895  28.2598462  25.9560038  64.8491724
  26.7712646  26.1382421  65.0560400  16.8017869  29.4877915  58.1070548
  16.6854127  28.8122819  58.7751632  16.9120129  29.0010289  57.2902701
  19.1449410  28.9488062  61.8117237  18.7807617  28.4218683  62.5230159
  20.0016526  28.5586531  61.6383723  25.0498711  20.2382395  69.0748503
  24.7182035  21.1077806  68.8509718  24.4544324  19.9218679  69.7542534
  18.7854897  23.9777962  56.8078586  18.9529299  24.8458199  57.1749057
  18.5952066  24.1405244  55.8839875  21.5430230  32.4394941  68.4744416
  21.2430953  33.3419980  68.3660223  21.1981290  32.1727124  69.3265569
  14.9942712  28.8908738  64.5081121  14.0693208  28.7584952  64.7158812
  15.2427125  29.6702957  65.0051063  24.9427374  24.9577481  66.1541853
  24.0344251  24.8892890  65.8600614  24.8914970  25.4349426  66.9823679
  18.7644118  26.4335620  57.7925253  18.6443743  26.8792670  58.6310733
  18.0696706  26.7820937  57.2338791  12.3551523  28.5342011  65.3424910
  12.4843904  28.7876490  66.2564321  11.6748974  29.1269719  65.0229565
  16.5251010  39.2039261  61.4415384  16.4475040  40.1547086  61.5203864
  15.9212653  38.8585134  62.0990310  19.0168240  26.3767127  74.0976751
  18.2401574  26.9361047  74.0879615  19.6558803  26.8623910  74.6191621
  26.8089020  23.1593920  67.9319727  26.1663401  23.4526453  67.2859522
  26.3043949  23.0446840  68.7372924  24.4629184  26.9057093  58.6205587
  25.3747040  27.1384480  58.4453284  23.9538831  27.4894137  58.0580665
  17.2714612  29.1852580  73.6594718  18.0129296  29.7237624  73.3829541
  16.5651597  29.8118869  73.8166270  22.7469952  31.3281721  72.2566879
  23.1553308  30.8864131  71.5121512  22.0247213  30.7534348  72.5101072
  19.1001022  26.2654327  69.6300436  19.9462217  26.6893741  69.7735085
  19.0399659  25.6087952  70.3238999  23.0698766  31.8882911  66.0119168
  22.4407629  32.0528625  65.3095236  22.6824428  32.3024521  66.7830132
  26.9487998  32.8237349  63.3663532  26.2639036  33.2036250  62.8160565
  27.0331847  33.4332676  64.0995480  22.2500467  23.9258696  71.2881610
  22.0061399  24.6800756  70.7515886  22.5260398  24.3044043  72.1228857
  24.2038930  30.4697308  69.9658875  24.4155825  31.1129068  69.2893256
  24.1568678  29.6359625  69.4980805  21.8065159  23.0815129  66.8695448
  20.9449638  23.3796382  67.1612185  21.8327593  23.2985528  65.9376480
  18.6226728  31.6257319  63.2769253  19.0865074  31.9045022  62.4873876
  18.3583526  30.7240764  63.0942344  15.5150809  31.1728801  66.2149016
  16.0852166  31.6016069  65.5766501  16.1058921  30.8911386  66.9133202
  17.5595614  27.7480472  60.0858818  18.2619658  28.2001515  60.5532745
  17.2276243  27.1064291  60.7138711  16.0075976  26.3392228  74.4610028
  15.3774636  27.0208509  74.6945425  15.9012064  26.2275310  73.5163166
  11.3020948  26.0064024  65.3875952  10.5120002  26.2621553  64.9116063
  11.7932196  26.8212362  65.4927992  25.3184758  33.3469264  68.1381233
  26.1402201  32.9449451  67.8563914  25.3147161  33.2437498  69.0897349
  13.2535694  26.3708604  62.3459429  12.4566857  26.4827298  62.8642924
  13.0261286  26.7095256  61.4800319  19.0841361  32.8953307  70.2941943
  19.1485794  33.3573714  71.1300115  18.3752285  32.2650672  70.4224253
   9.5858651  26.2594515  67.8190943   9.8366690  27.1441525  68.0848519
  10.1218200  26.0799116  67.0466035  33.4090751  29.6908012  64.4866204
  32.6554459  29.1215410  64.3310209  33.5438292  29.6570677  65.4336839
  18.7989379  34.5621414  60.1620924  18.6635054  35.4072950  60.5905771
  19.3399191  34.7640692  59.3986857  15.2856718  20.6412994  76.8235279
  14.8923664  20.0879193  77.4982923  16.1022859  20.9523573  77.2141796
  12.2518776  32.0796852  60.7348849  12.7643297  32.8740103  60.8854413
  12.9041489  31.3823143  60.6682450  14.0613661  35.1962609  62.8171602
  14.2380289  36.1180573  62.6292586  14.8570494  34.8821028  63.2465982
  18.2024679  22.0570873  74.4155535  18.9434393  22.6578026  74.3359998
  18.4342602  21.3148511  73.8573578  13.3466017  27.2427241  72.6933765
  13.2319533  26.3412498  72.9940864  12.4910535  27.4890937  72.3418582
  20.4257855  35.1844981  74.2921266  19.9821709  34.3981359  73.9742170
  21.0875069  35.3724131  73.6265156  15.1844976  36.7140782  68.8181944
  15.7352401  36.5857846  68.0458938  14.3456452  37.0135671  68.4676837
  22.5239093  35.4647781  72.3202667  22.5057569  36.2856662  71.8282936
  23.4459013  35.3401856  72.5452808  18.9812147  32.9791910  73.1626175
  19.5140484  32.2180198  72.9325483  18.4526229  32.6865562  73.9050330
  22.1481842  18.0851976  68.6919817  21.8046112  18.9753618  68.6158928
  22.5160805  17.8953634  67.8289402  10.2167693  30.4085507  61.5108419
  11.0542915  30.8182515  61.2942127  10.3945961  29.4684949  61.4808613
  22.1132125  28.0760587  57.1992252  21.5978749  28.8465192  57.4380640
  21.8409434  27.4025723  57.8225314  19.6979236  22.9210288  62.2577491
  18.8420832  22.5317139  62.0783129  20.1106188  23.0002249  61.3977276
  21.2278383  20.4556631  66.6569050  20.7243178  20.4186767  65.8436856
  21.5208990  21.3649374  66.7165707  17.4721269  20.5395361  65.6635232
  18.3374265  20.3438170  65.3041121  17.5398778  20.3105713  66.5904589
  27.0866399  30.8292942  59.1345426  26.3095842  30.4904101  58.6900588
  27.7657880  30.8345565  58.4600391  21.9018428  25.9487679  59.0252033
  21.5968564  26.2633829  59.8762177  22.8548870  26.0269099  59.0679366
  20.3464860  32.1077903  60.6744987  19.8186222  31.3730662  60.3618225
  19.8452363  32.8852579  60.4284956  25.3257706  30.3026923  65.7912034
  24.6681381  30.9926185  65.8792162  26.1298105  30.6923355  66.1346020
  15.0783588  22.7697569  63.0351599  15.6527340  22.5472751  62.3024792
  15.6654570  22.8386264  63.7880200  24.1363165  28.6571296  63.8415975
  24.6495047  29.2901288  64.3437685  24.7864389  28.0572491  63.4759335
  15.4053175  24.8002030  57.0547484  14.5690487  25.1376717  57.3756759
  15.2657944  24.6651010  56.1174621  17.3806255  19.6438818  61.7626668
  16.7270668  19.3287835  61.1383283  17.3386730  19.0214558  62.4886491
  18.4917460  29.9258113  53.6779960  17.5844522  29.6947366  53.8771109
  18.9888492  29.1295732  53.8653942  21.3985539  38.6355620  56.5976647
  20.7247238  38.9387317  57.2061604  21.7851361  39.4384701  56.2482104
  20.6143996  26.1320751  66.0874316  19.6966557  26.3535698  65.9296004
  21.0304139  26.2067062  65.2286023  21.3979044  27.5312167  61.2176996
  22.1450863  28.0433564  60.9084118  21.6670633  27.2096220  62.0781390
  19.6705694  30.0270708  58.2003950  18.7616913  29.7429741  58.2976420
  19.7000778  30.4469786  57.3407257  24.9024961  33.6377297  61.9695118
  24.4487288  32.7968207  62.0260308  24.2718928  34.2738696  62.3069898
  23.8457881  24.5669283  63.1995785  23.1080638  24.0546670  63.5306028
  24.0984654  24.1269665  62.3879062  23.3457900  35.4753794  62.9044936
  23.6380875  36.0358851  62.1857302  23.8556521  35.7682355  63.6598095
  23.9469508  17.3445535  63.7937555  24.2528385  16.4842899  63.5063470
  24.6722113  17.9363156  63.5936549  10.2393864  27.7476222  62.1819153
  10.0418264  27.1545583  61.4570219   9.6840528  27.4428432  62.8995091
  18.2190588  27.6399328  64.3013746  18.2739198  26.6873165  64.2256222
  17.4081790  27.7958768  64.7855044  19.3681782  31.5679452  55.5392029
  18.9301211  30.8515310  55.0797666  20.1092222  31.7955566  54.9777120
  16.1582948  26.2576388  62.0604125  15.3450813  26.5570559  62.4669317
  16.6541942  25.8632077  62.7778607  18.3091526  36.2534145  63.9938389
  18.2667704  36.4794991  63.0646921  19.2254224  36.0197520  64.1424191
  21.7557159  26.7218213  70.8919019  22.1106547  26.9489686  71.7513484
  22.4029291  27.0536589  70.2696274  27.4854896  29.8436649  61.5968348
  27.3472795  30.0338245  60.6689537  27.1291115  30.6056031  62.0536399
  15.6497022  23.8294744  67.6765360  16.2896402  23.6883503  66.9788323
  14.8174553  23.5429257  67.3003962  27.5124276  31.9113176  66.6079619
  27.9460783  31.8188465  67.4562673  28.2255857  31.8870676  65.9699635
  16.4257326  33.1297174  63.7900352  17.2197925  32.6347494  63.5882927
  15.7149019  32.6015037  63.4268058  21.2452171  35.5115270  68.1412720
  21.2989193  36.0806206  68.9090436  20.3766952  35.6817155  67.7766757
  12.7340090  27.2740256  59.8660105  11.8037678  27.2124711  60.0830067
  12.8297562  26.7516209  59.0696746  12.6525639  23.7995069  62.4538346
  12.9132456  24.7140402  62.3447507  13.4742811  23.3319511  62.6034959
  14.1250564  25.2132826  69.6237171  14.7973618  25.0050188  68.9749820
  13.2980351  25.0154912  69.1842403  28.3739826  31.9536876  69.1412504
  28.5675716  32.8582687  69.3871779  28.2740444  31.4944295  69.9751090
  20.0276136  21.8394767  71.6402832  19.3804051  22.5384716  71.5467308
  20.7977152  22.2730911  72.0079080  23.4354934  32.1043619  74.7153385
  23.2840441  31.8754171  73.7983469  23.4259614  33.0614220  74.7284730
  20.2040271  29.6775532  69.6999652  21.1332331  29.8286691  69.5268619
  19.7831301  29.7659553  68.8448298  19.0028602  33.7026196  67.4698189
  18.8639688  33.3344981  68.3424127  18.2143199  34.2173836  67.2982147
  19.5976754  38.8035293  58.8123726  19.7728510  38.3323336  59.6269348
  18.9109542  39.4301059  59.0404986  20.5533818  33.0807799  64.8587027
  20.2183650  33.0408569  65.7544677  20.0537763  32.4152515  64.3857437
  14.5278061  28.4875429  70.3839608  14.3897859  27.7555668  70.9851147
  15.4382985  28.3984329  70.1023796  23.4893009  30.4263833  55.1324087
  22.8722180  29.7010661  55.0357139  23.0209498  31.1873193  54.7891161
  17.1560362  28.1995388  69.8723288  17.8659981  27.5588580  69.8309906
  17.1129670  28.4508283  70.7949469  25.1447141  35.1362742  72.7929867
  25.0859687  34.4521962  72.1260450  25.5466659  35.8781732  72.3410493
  15.8689296  25.1860606  71.6918927  15.3326653  24.7351345  72.3440524
  15.2806005  25.3206515  70.9489392  14.1637840  41.9524655  65.5863586
  14.4034438  42.5843180  66.2642604  13.3207036  41.6012695  65.8728945
  15.2791555  24.6449257  54.2545391  14.4021021  24.5238058  53.8907638
  15.7549308  23.8535336  54.0024280  25.1464548  33.1002325  71.0243847
  24.2591327  32.7628247  71.1470246  25.7163099  32.3685357  71.2612612
   6.7993695  29.4326417  64.3486898   7.4864735  29.1188147  63.7607913
   6.6441824  30.3367782  64.0754149  11.6028417  24.3216614  68.7771922
  11.5186606  23.7142283  68.0422332  10.7811124  24.8125632  68.7781418
  18.6765701  37.7603778  67.9905090  18.6035873  38.5658749  68.5024394
  18.2343095  37.9595744  67.1653111  18.4655481  36.9975548  61.5007911
  17.6823003  37.5397228  61.5946136  19.1648226  37.5149527  61.9002153
  21.7752131  22.8070177  64.1442117  22.2720831  22.0540140  63.8243187
  21.0039113  22.8434494  63.5785326  29.6281889  28.5110543  65.7860408
  29.6171765  29.3935258  65.4154341  28.7599268  28.1582094  65.5914945
  21.1364385  37.6590612  70.1463249  21.8492357  38.2938077  70.0739150
  20.6454414  37.7554478  69.3303250  22.8581912  31.5641865  61.7180540
  21.9238191  31.6843327  61.5485245  23.0358580  30.6614331  61.4540550
  18.3587100  24.9487560  63.8713801  17.9884887  24.3958601  64.5594707
  18.8546192  24.3445694  63.3188801  26.2454463  27.4059184  62.2530574
  26.7114915  28.2387175  62.1790877  26.6961964  26.9404165  62.9575833
  16.1876299  35.4085055  70.9668819  16.8885758  36.0421538  71.1198214
  15.7171414  35.7499787  70.2064459  24.3130694  33.7503005  59.2516726
  24.5890538  33.6359600  60.1610600  23.4435193  33.3520490  59.2128899
  24.2171126  19.7739771  66.2921476  23.3034206  20.0043998  66.4603683
  24.6464227  19.8578215  67.1435508  23.9877585  27.9629663  68.7921370
  23.3349035  28.2105570  68.1373822  24.3657964  27.1493801  68.4583847
  20.9484758  37.9989356  62.8949540  21.1307153  37.1811012  63.3577292
  21.7717744  38.2157048  62.4574430  21.2826924  36.9257541  60.1564588
  21.8114690  36.4149996  59.5434751  21.5455143  36.6100071  61.0210121
  20.0365158  28.7049474  75.2787407  19.3605795  28.6043603  75.9489782
  20.8592791  28.5488688  75.7423404  11.7844017  34.9421410  67.8999922
  12.3697453  34.1965098  68.0327826  11.5868855  35.2525367  68.7836586
  14.6382672  37.9772658  62.9162364  13.9693047  38.4618785  62.4326404
  14.4995542  38.2241878  63.8305743   6.3761671  27.5127011  66.6204365
   6.4145771  26.9790601  67.4141483   5.8701964  26.9862216  66.0015342
  18.7787940  40.0116401  69.5145023  19.3306248  40.1748023  70.2794108
  19.1194134  40.6020839  68.8425048  13.7552434  22.3591551  70.1166907
  13.8193760  23.2206382  69.7044305  13.6919554  21.7465553  69.3839266
  13.2304706  24.4314684  73.7639942  13.8576745  24.0491761  74.3777466
  12.3732625  24.2128886  74.1295634  23.6298815  34.8377659  75.3693677
  24.1738719  35.4507617  74.8748632  23.0485660  35.3957237  75.8860690
  10.0070249  26.2391113  59.6958297  10.3023690  25.3301791  59.6425350
   9.1058285  26.2178852  59.3739299  21.9156328  37.9598377  66.5008705
  21.7907467  37.1588117  65.9919650  22.5735419  38.4544570  66.0122675
  13.5364496  24.3147109  65.6785845  12.8151082  24.9283077  65.5393318
  14.3257752  24.8504874  65.6002491  23.9791236  35.7607397  68.1288255
  23.0321572  35.6412748  68.0566582  24.3274009  34.8729895  68.2114516
  16.3390809  21.6501536  71.9526497  16.8625211  21.8963832  72.7152806
  16.1203143  22.4821571  71.5329634  11.7358091  23.9205210  59.8197622
  11.4070797  23.0402589  59.6372728  12.0897461  23.8652879  60.7074011
  20.9837669  35.5560113  64.3292607  20.8362632  34.6276821  64.5100177
  21.8091163  35.5780204  63.8449682  14.8499914  24.2078180  60.1873099
  15.1895986  24.7364101  59.4651708  15.2972034  24.5458586  60.9631666
  24.5871791  36.3788672  65.4157480  25.5118339  36.1731533  65.2781931
  24.4187095  36.1305073  66.3246821  17.5443354  22.5915231  69.6376167
  17.2040175  21.7923044  70.0396847  16.8382361  22.8916942  69.0653001
  18.1959826  19.6764543  68.0903490  19.0185896  19.2025022  67.9682381
  18.4397890  20.4555027  68.5902177  16.8368061  22.7052802  58.3866392
  17.5576423  23.0834055  57.8830109  16.2133365  23.4241679  58.4901370
  20.9799184  23.4097951  59.3224724  21.1962798  24.2922589  59.0213553
  20.4993251  23.0184164  58.5930366  15.7198405  26.3683664  65.8995469
  15.5742986  26.6823967  66.7919751  15.2423609  26.9868564  65.3466368
  17.5794788  23.3586212  65.9476359  17.5656357  22.4627305  65.6108657
  18.2967216  23.3656876  66.5814645  19.4320919  23.7923552  67.9929486
  19.1738696  24.7140623  67.9913816  18.9005959  23.3953987  68.6829950
  24.3767107  36.8974339  60.7719571  24.5503985  36.3320762  60.0193424
  24.8695999  37.6975234  60.5899061  10.1944067  28.9089008  68.8383130
   9.6497535  29.6848816  68.9703405  11.0723417  29.2559813  68.6802252
  16.9831684  22.2400592  61.2163929  17.1047595  21.3117238  61.4154816
  16.6933726  22.2539278  60.3042244  19.8522874  19.9255503  64.3530649
  19.8744571  19.9894836  63.3982628  20.2690933  19.0860011  64.5471155
  30.2306499  29.6610762  62.3909871  30.6737645  28.9118087  61.9928994
  29.3533009  29.6520899  62.0083603  25.3642280  36.2141104  57.8716470
  26.0593185  36.8347796  58.0903784  25.7065430  35.3636455  58.1468848
  10.9810089  28.0358905  71.7313287  10.2391825  28.1841540  72.3177918
  10.6602833  28.2967170  70.8680037  27.2633703  33.6640809  59.4003800
  27.7885027  34.0028082  58.6753121  27.1756056  32.7287825  59.2166935
  18.9253752  37.5774883  71.5293677  19.2340878  37.3324030  72.4016377
  19.7229234  37.7821521  71.0412547  18.9474364  39.7312793  63.7599054
  18.5079354  39.2389171  64.4531910  19.6982481  39.1885760  63.5191129
  11.4266703  35.9224333  63.7623682  12.2524723  35.6228105  63.3822325
  11.0760755  35.1531956  64.2113470  16.3948236  35.2750802  65.8321355
  15.7728245  34.6121507  65.5323583  17.0653103  35.3011933  65.1495003
   9.6275308  33.8410660  64.7212615   8.7907216  33.4132834  64.5396617
   9.5998953  34.0343103  65.6583407  16.4672763  23.7532590  75.4253861
  16.5160919  24.6294712  75.0431631  17.0095278  23.2109983  74.8525505
  26.9527609  34.2973713  74.7054998  26.1623153  34.2797852  74.1659498
  26.7160964  34.8362007  75.4604035  27.0725484  31.1466179  72.0187727
  27.1223489  30.9816187  72.9603250  26.9639407  30.2793438  71.6285608
  15.9561743  33.8254725  59.3079816  16.1049863  34.5090189  58.6546489
  16.7628186  33.8059815  59.8229272  24.3629247  27.1297107  73.3347034
  25.2639109  26.9903572  73.0431031  24.4377221  27.2951562  74.2745211
  18.6972052  24.5063962  72.1800220  17.8275361  24.7997528  71.9082809
  18.9331532  25.0904407  72.9007484  28.5743681  33.5663121  72.2629749
  28.2828489  33.9293101  73.0993209  27.9615812  32.8530129  72.0843081
  29.7739363  31.1316001  64.7832319  30.6086255  31.5705805  64.9469879
  29.9098492  30.6554654  63.9640565  26.8230869  28.6895735  70.7309807
  27.2984991  28.8823382  69.9228658  25.8996435  28.7454921  70.4853190
  13.7114376  29.8519903  60.3140885  13.4660418  28.9482233  60.5121095
  13.8810290  29.8537053  59.3720363  21.4011086  20.7243579  69.6965640
  21.9193030  21.4604606  69.3712129  21.0466218  21.0307572  70.5312400
  12.9810023  25.5848260  57.8127046  12.2879268  25.6592615  57.1567082
  12.7361775  24.8208604  58.3348563  21.6523680  17.1443861  65.2166537
  21.9325434  16.4767051  65.8426964  22.4374287  17.3372957  64.7041201
  19.4557148  36.3202855  56.7791563  18.8831115  36.9393043  56.3262035
  20.0289942  36.8702217  57.3131485  25.5232538  25.5661495  68.9638112
  26.4749961  25.6659593  68.9850336  25.3535989  24.7739764  69.4736196
  23.5446918  22.6517079  69.1497513  22.9496850  22.9322091  68.4544002
  23.2596614  23.1410980  69.9214254  22.6754408  36.6040006  57.9100146
  23.6085081  36.5385567  58.1133021  22.5877621  37.4396272  57.4514678
  25.3042425  35.9205876  54.8704093  25.2256056  35.5865739  55.7639851
  26.1252092  36.4127644  54.8695565  28.0020616  28.7867615  68.0780412
  27.9696936  27.8483616  68.2640096  28.6121240  28.8651652  67.3446237
  19.8403947  27.6563668  54.1207616  20.7863052  27.5269876  54.1896034
  19.4618192  26.9178330  54.5977044  28.1515104  25.5778659  68.1238695
  27.6354153  24.7937115  67.9368624  29.0355053  25.2497375  68.2885214
  25.8125831  19.3219674  64.0834508  25.6150653  19.0134762  64.9677840
  26.4225537  20.0481313  64.2132437  33.8197166  29.8483622  67.2186449
  34.5500554  29.5868910  67.7794152  33.2104111  29.1112344  67.2588517
  31.9012463  27.9891485  67.8160900  31.1745627  27.8547450  67.2077391
  31.4859750  28.2968313  68.6217618  19.7242639  31.7081414  75.5808273
  20.6445649  31.8860013  75.7748319  19.6892222  30.7637460  75.4287972
  18.0246864  25.5813645  54.0562501  17.1178319  25.2846757  54.1325215
  18.3022845  25.2843463  53.1896787   8.9424804  26.9020008  64.5061547
   8.6227589  26.0485316  64.2135921   8.3958233  27.1168586  65.2619515
  12.7204712  29.6182449  68.2231054  12.9390722  30.5499557  68.2419088
  13.1330486  29.2590423  69.0085858  19.6408930  20.1250534  60.2106742
  18.8309658  19.7797619  60.5861988  20.3293347  19.8158078  60.7994354
  21.5699478  19.2028581  61.8331039  22.1230517  19.6224034  62.4921062
  21.8069564  18.2764329  61.8753995  17.5932577  25.1915655  77.6133803
  17.4929304  26.1410012  77.5445894  17.3754119  24.8633894  76.7409873
  16.7945649  22.4400580  54.1974480  17.6564813  22.7655478  54.4570298
  16.9795993  21.6532076  53.6847546   8.8113064  30.5222919  66.4754669
   8.1176536  30.1076872  65.9624623   9.5586055  30.5643456  65.8788088
  24.9478285  21.3129106  61.3409703  24.3676954  21.9713910  60.9587756
  24.6814218  20.4906451  60.9297121  23.3981851  20.7134164  63.5431024
  23.8981630  20.8250698  62.7345342  24.0417459  20.4095217  64.1831832
  17.4563847  28.6212794  76.4298865  16.9730929  29.4213154  76.6362754
  17.5424786  28.6320738  75.4766309  10.7249807  30.4541173  64.3520684
  10.7020495  30.5528860  63.4002567  11.0350443  31.3006324  64.6737850
  13.3837185  32.5117328  68.4667298  14.3380438  32.4801271  68.3997230
  13.1849708  32.0507952  69.2817524  13.9736567  31.0818444  71.0338096
  14.7929456  31.5762523  71.0572933  14.2473375  30.1650412  71.0055663
  23.7303163  23.4729197  60.3966051  22.8429018  23.7578847  60.1786246
  24.1457152  23.3122960  59.5493328  27.0817699  23.4975718  64.1120391
  27.8578089  23.9872170  64.3845008  26.3565833  23.9233772  64.5692260
  29.5190258  24.2103337  65.1694331  30.1134749  23.9699073  64.4587640
  29.5916842  23.4910467  65.7967868  11.7387414  38.0536948  65.4837496
  11.6041882  37.2937349  64.9175494  11.3219476  38.7777848  65.0166285
  22.8746377  33.2373871  54.4914071  23.5782227  33.4423874  55.1071727
  22.1509025  33.8050633  54.7563155  23.7044187  28.9883733  60.6116342
  23.6479388  29.4452284  59.7723974  24.2572529  28.2274417  60.4339184
  27.5148993  24.7773464  61.4366461  27.2585927  24.3770100  62.2674669
  26.8901861  25.4917258  61.3116600  31.8261331  27.5169538  63.9437753
  31.2660889  27.5862727  64.7169315  31.2204834  27.3410522  63.2237249
  14.8956539  38.9506265  65.6955939  14.7788924  39.8951697  65.5934629
  14.0748986  38.6479826  66.0841738  24.7833074  33.6756400  56.5412532
  25.6178678  33.2437599  56.3590006  24.6217417  33.5038414  57.4689426
  24.4378966  30.1788514  57.9068871  24.3827770  30.0132785  56.9657315
  23.8125021  30.8864547  58.0631061   9.2271481  25.4156578  71.7330293
   9.8730345  24.9055532  72.2217518   9.0188632  26.1525260  72.3073718
  21.7524873  32.4837426  77.2322434  22.6216033  32.6578078  76.8709069
  21.2731625  33.3031842  77.1098163  17.7475092  19.6796623  57.4854189
  17.7353761  20.6238463  57.6422460  18.6398514  19.4966768  57.1913650
  15.9211054  39.6034527  68.9111867  16.8238300  39.6358137  69.2278362
  15.6948424  38.6734978  68.9258203  17.6764656  38.3565513  65.5721946
  16.7260287  38.3567375  65.4586318  17.9797142  37.6098248  65.0557980
  21.5627211  16.2739399  61.7400126  20.7959607  15.7197886  61.8856808
  21.9737916  16.3461268  62.6014278  13.5668972  22.5624195  75.8305307
  14.4300434  22.2061000  76.0408632  12.9934383  22.2238090  76.5180712
  30.2207055  44.1453480  66.5729233  29.8825567  44.0294544  65.6849768
  31.0896824  43.7444645  66.5530239  26.0793871  45.9988956  62.5626124
  25.5158736  45.9078893  61.7942412  25.9646266  45.1788861  63.0428616
  30.7026838  45.2988331  72.5315438  30.6915479  44.9041130  71.6595942
  30.8647478  44.5654404  73.1249210  23.6258303  47.4940148  65.4010344
  24.4179595  47.1530972  64.9856644  23.8654953  47.6035123  66.3212498
  28.3490306  45.4602292  68.0695982  28.9453879  45.2358314  67.3552945
  28.4065278  44.7187037  68.6721430  27.9215335  42.9141727  55.9046173
  28.1740855  42.3923248  55.1429636  26.9839894  42.7507872  56.0072857
  32.9658618  41.9177505  63.7120916  33.7521707  41.4996929  63.3611333
  33.2297322  42.8223598  63.8802565  29.9843164  44.2779980  61.8117237
  29.6201372  43.7510601  62.5230159  30.8410280  43.8878449  61.6383723
  35.8892465  35.5674313  69.0748503  35.5575790  36.4369724  68.8509718
  35.2938078  35.2510597  69.7542534  29.6248651  39.3069880  56.8078586
  29.7923054  40.1750116  57.1749057  29.4345820  39.4697162  55.8839875
  25.8336466  44.2200656  64.5081121  24.9086963  44.0876870  64.7158812
  26.0820879  44.9994875  65.0051063  35.7821128  40.2869399  66.1541853
  34.8738006  40.2184807  65.8600614  35.7308724  40.7641344  66.9823679
  29.6037872  41.7627537  57.7925253  29.4837497  42.2084588  58.6310733
  28.9090461  42.1112855  57.2338791  23.1945277  43.8633929  65.3424910
  23.3237658  44.1168408  66.2564321  22.5142728  44.4561637  65.0229565
  29.8561994  41.7059044  74.0976751  29.0795328  42.2652965  74.0879615
  30.4952557  42.1915827  74.6191621  37.6482775  38.4885837  67.9319727
  37.0057155  38.7818370  67.2859522  37.1437703  38.3738758  68.7372924
  35.3022938  42.2349010  58.6205587  36.2140795  42.4676397  58.4453284
  34.7932586  42.8186055  58.0580665  28.1108366  44.5144498  73.6594718
  28.8523051  45.0529542  73.3829541  27.4045352  45.1410787  73.8166270
  29.9394776  41.5946245  69.6300436  30.7855971  42.0185659  69.7735085
  29.8793414  40.9379869  70.3238999  33.0894221  39.2550613  71.2881610
  32.8455153  40.0092674  70.7515886  33.3654152  39.6335961  72.1228857
  32.6458913  38.4107046  66.8695448  31.7843392  38.7088300  67.1612185
  32.6721348  38.6277445  65.9376480  26.3544564  46.5020719  66.2149016
  26.9245921  46.9307987  65.5766501  26.9452676  46.2203303  66.9133202
  28.3989369  43.0772389  60.0858818  29.1013412  43.5293433  60.5532745
  28.0669997  42.4356208  60.7138711  26.8469730  41.6684146  74.4610028
  26.2168391  42.3500427  74.6945425  26.7405818  41.5567228  73.5163166
  22.1414703  41.3355942  65.3875952  21.3513757  41.5913471  64.9116063
  22.6325950  42.1504280  65.4927992  24.0929448  41.7000521  62.3459429
  23.2960611  41.8119216  62.8642924  23.8655040  42.0387174  61.4800319
  20.4252406  41.5886433  67.8190943  20.6760444  42.4733442  68.0848519
  20.9611954  41.4091034  67.0466035  26.1250473  35.9704912  76.8235279
  25.7317419  35.4171110  77.4982923  26.9416613  36.2815490  77.2141796
  23.0912531  47.4088770  60.7348849  23.6037051  48.2032020  60.8854413
  23.7435244  46.7115061  60.6682450  24.9007415  50.5254526  62.8171602
  25.0774044  51.4472491  62.6292586  25.6964249  50.2112946  63.2465982
  29.0418434  37.3862791  74.4155535  29.7828147  37.9869944  74.3359998
  29.2736357  36.6440429  73.8573578  24.1859772  42.5719158  72.6933765
  24.0713287  41.6704415  72.9940864  23.3304290  42.8182855  72.3418582
  26.0238731  52.0432700  68.8181944  26.5746156  51.9149763  68.0458938
  25.1850207  52.3427589  68.4676837  32.9875597  33.4143894  68.6919817
  32.6439866  34.3045536  68.6158928  33.3554559  33.2245552  67.8289402
  21.0561447  45.7377424  61.5108419  21.8936669  46.1474433  61.2942127
  21.2339715  44.7976867  61.4808613  32.9525880  43.4052505  57.1992252
  32.4372503  44.1757110  57.4380640  32.6803188  42.7317641  57.8225314
  30.5372991  38.2502206  62.2577491  29.6814587  37.8609056  62.0783129
  30.9499942  38.3294167  61.3977276  32.0672137  35.7848549  66.6569050
  31.5636933  35.7478684  65.8436856  32.3602744  36.6941292  66.7165707
  28.3115023  35.8687279  65.6635232  29.1768020  35.6730087  65.3041121
  28.3792532  35.6397631  66.5904589  37.9260154  46.1584860  59.1345426
  37.1489596  45.8196019  58.6900588  38.6051635  46.1637483  58.4600391
  32.7412183  41.2779597  59.0252033  32.4362318  41.5925746  59.8762177
  33.6942625  41.3561017  59.0679366  25.9177342  38.0989487  63.0351599
  26.4921094  37.8764668  62.3024792  26.5048325  38.1678181  63.7880200
  26.2446929  40.1293948  57.0547484  25.4084242  40.4668634  57.3756759
  26.1051699  39.9942928  56.1174621  28.2200010  34.9730736  61.7626668
  27.5664422  34.6579753  61.1383283  28.1780484  34.3506476  62.4886491
  31.4537750  41.4612669  66.0874316  30.5360312  41.6827616  65.9296004
  31.8697894  41.5358980  65.2286023  32.2372798  42.8604085  61.2176996
  32.9844617  43.3725482  60.9084118  32.5064388  42.5388138  62.0781390
  34.6851635  39.8961201  63.1995785  33.9474392  39.3838587  63.5306028
  34.9378409  39.4561583  62.3879062  34.7863263  32.6737453  63.7937555
  35.0922139  31.8134817  63.5063470  35.5115867  33.2655073  63.5936549
  21.0787619  43.0768140  62.1819153  20.8812018  42.4837500  61.4570219
  20.5234283  42.7720350  62.8995091  29.0584342  42.9691246  64.3013746
  29.1132952  42.0165083  64.2256222  28.2475544  43.1250685  64.7855044
  26.9976702  41.5868306  62.0604125  26.1844568  41.8862476  62.4669317
  27.4935696  41.1923995  62.7778607  32.5950914  42.0510130  70.8919019
  32.9500302  42.2781604  71.7513484  33.2423045  42.3828507  70.2696274
  26.4890777  39.1586661  67.6765360  27.1290156  39.0175421  66.9788323
  25.6568307  38.8721175  67.3003962  27.2651081  48.4589092  63.7900352
  28.0591679  47.9639412  63.5882927  26.5542773  47.9306955  63.4268058
  23.5733844  42.6032174  59.8660105  22.6431432  42.5416629  60.0830067
  23.6691316  42.0808126  59.0696746  23.4919393  39.1286986  62.4538346
  23.7526211  40.0432320  62.3447507  24.3136566  38.6611429  62.6034959
  24.9644319  40.5424744  69.6237171  25.6367372  40.3342106  68.9749820
  24.1374105  40.3446830  69.1842403  30.8669891  37.1686684  71.6402832
  30.2197806  37.8676634  71.5467308  31.6370906  37.6022828  72.0079080
  31.0434025  45.0067449  69.6999652  31.9726085  45.1578609  69.5268619
  30.6225055  45.0951470  68.8448298  25.3671816  43.8167347  70.3839608
  25.2291614  43.0847585  70.9851147  26.2776739  43.7276247  70.1023796
  34.3286764  45.7555751  55.1324087  33.7115934  45.0302579  55.0357139
  33.8603252  46.5165111  54.7891161  27.9954117  43.5287306  69.8723288
  28.7053735  42.8880498  69.8309906  27.9523425  43.7800201  70.7949469
  26.7083051  40.5152524  71.6918927  26.1720408  40.0643262  72.3440524
  26.1199759  40.6498433  70.9489392  26.1185310  39.9741175  54.2545391
  25.2414776  39.8529976  53.8907638  26.5943063  39.1827253  54.0024280
  17.6387450  44.7618335  64.3486898  18.3258490  44.4480065  63.7607913
  17.4835578  45.6659700  64.0754149  22.4422172  39.6508531  68.7771922
  22.3580361  39.0434201  68.0422332  21.6204878  40.1417550  68.7781418
  32.6145886  38.1362095  64.1442117  33.1114585  37.3832057  63.8243187
  31.8432867  38.1726412  63.5785326  29.1980854  40.2779478  63.8713801
  28.8278642  39.7250518  64.5594707  29.6939947  39.6737611  63.3188801
  35.0564880  35.1031688  66.2921476  34.1427960  35.3335915  66.4603683
  35.4857982  35.1870133  67.1435508  30.8758912  44.0341392  75.2787407
  30.1999549  43.9335521  75.9489782  31.6986546  43.8780605  75.7423404
  22.6237771  50.2713328  67.8999922  23.2091208  49.5257016  68.0327826
  22.4262610  50.5817285  68.7836586  25.4776426  53.3064575  62.9162364
  24.8086802  53.7910703  62.4326404  25.3389296  53.5533796  63.8305743
  17.2155426  42.8418928  66.6204365  17.2539525  42.3082519  67.4141483
  16.7095719  42.3154134  66.0015342  24.5946188  37.6883469  70.1166907
  24.6587515  38.5498300  69.7044305  24.5313308  37.0757470  69.3839266
  24.0698461  39.7606601  73.7639942  24.6970499  39.3783679  74.3777466
  23.2126380  39.5420803  74.1295634  20.8464003  41.5683030  59.6958297
  21.1417444  40.6593709  59.6425350  19.9452039  41.5470770  59.3739299
  24.3758250  39.6439027  65.6785845  23.6544836  40.2574995  65.5393318
  25.1651506  40.1796792  65.6002491  27.1784564  36.9793453  71.9526497
  27.7018966  37.2255750  72.7152806  26.9596897  37.8113488  71.5329634
  22.5751845  39.2497128  59.8197622  22.2464551  38.3694507  59.6372728
  22.9291216  39.1944797  60.7074011  25.6893668  39.5370098  60.1873099
  26.0289741  40.0656019  59.4651708  26.1365789  39.8750504  60.9631666
  28.3837109  37.9207149  69.6376167  28.0433929  37.1214962  70.0396847
  27.6776115  38.2208859  69.0653001  29.0353581  35.0056461  68.0903490
  29.8579650  34.5316939  67.9682381  29.2791644  35.7846945  68.5902177
  27.6761815  38.0344719  58.3866392  28.3970178  38.4125972  57.8830109
  27.0527119  38.7533596  58.4901370  31.8192938  38.7389868  59.3224724
  32.0356553  39.6214506  59.0213553  31.3387005  38.3476082  58.5930366
  26.5592160  41.6975582  65.8995469  26.4136740  42.0115885  66.7919751
  26.0817363  42.3160482  65.3466368  28.4188542  38.6878130  65.9476359
  28.4050111  37.7919223  65.6108657  29.1360971  38.6948793  66.5814645
  30.2714673  39.1215470  67.9929486  30.0132451  40.0432540  67.9913816
  29.7399714  38.7245904  68.6829950  21.0337822  44.2380926  68.8383130
  20.4891290  45.0140734  68.9703405  21.9117172  44.5851731  68.6802252
  27.8225438  37.5692510  61.2163929  27.9441350  36.6409156  61.4154816
  27.5327481  37.5831196  60.3042244  30.6916629  35.2547420  64.3530649
  30.7138326  35.3186753  63.3982628  31.1084688  34.4151929  64.5471155
  41.0700253  44.9902680  62.3909871  41.5131399  44.2410005  61.9928994
  40.1926763  44.9812816  62.0083603  21.8203844  43.3650822  71.7313287
  21.0785580  43.5133458  72.3177918  21.4996588  43.6259088  70.8680037
  22.2660457  51.2516251  63.7623682  23.0918477  50.9520023  63.3822325
  21.9154509  50.4823873  64.2113470  27.2341990  50.6042719  65.8321355
  26.6122000  49.9413424  65.5323583  27.9046857  50.6303851  65.1495003
  20.4669062  49.1702577  64.7212615  19.6300971  48.7424752  64.5396617
  20.4392708  49.3635021  65.6583407  27.3066518  39.0824507  75.4253861
  27.3554673  39.9586630  75.0431631  27.8489032  38.5401900  74.8525505
  35.2023001  42.4589025  73.3347034  36.1032864  42.3195490  73.0431031
  35.2770976  42.6243480  74.2745211  29.5365806  39.8355880  72.1800220
  28.6669116  40.1289446  71.9082809  29.7725287  40.4196325  72.9007484
  24.5508130  45.1811820  60.3140885  24.3054172  44.2774150  60.5121095
  24.7204045  45.1828971  59.3720363  32.2404840  36.0535497  69.6965640
  32.7586784  36.7896524  69.3712129  31.8859973  36.3599490  70.5312400
  23.8203778  40.9140178  57.8127046  23.1273023  40.9884533  57.1567082
  23.5755530  40.1500521  58.3348563  32.4917434  32.4735779  65.2166537
  32.7719188  31.8058968  65.8426964  33.2768041  32.6664875  64.7041201
  36.3626293  40.8953413  68.9638112  37.3143716  40.9951511  68.9850336
  36.1929743  40.1031682  69.4736196  34.3840672  37.9808996  69.1497513
  33.7890604  38.2614009  68.4544002  34.0990369  38.4702897  69.9214254
  30.6797701  42.9855586  54.1207616  31.6256806  42.8561794  54.1896034
  30.3011946  42.2470248  54.5977044  38.9908859  40.9070576  68.1238695
  38.4747908  40.1229033  67.9368624  39.8748807  40.5789293  68.2885214
  36.6519586  34.6511592  64.0834508  36.4544407  34.3426680  64.9677840
  37.2619291  35.3773231  64.2132437  28.8640619  40.9105562  54.0562501
  27.9572074  40.6138675  54.1325215  29.1416600  40.6135380  53.1896787
  19.7818559  42.2311926  64.5061547  19.4621343  41.3777234  64.2135921
  19.2351987  42.4460504  65.2619515  23.5598466  44.9474367  68.2231054
  23.7784476  45.8791474  68.2419088  23.9724240  44.5882341  69.0085858
  30.4802684  35.4542452  60.2106742  29.6703413  35.1089537  60.5861988
  31.1687101  35.1449996  60.7994354  32.4093233  34.5320499  61.8331039
  32.9624271  34.9515952  62.4921062  32.6463319  33.6056247  61.8753995
  28.4326332  40.5207572  77.6133803  28.3323059  41.4701929  77.5445894
  28.2147874  40.1925811  76.7409873  27.6339403  37.7692497  54.1974480
  28.4958567  38.0947396  54.4570298  27.8189747  36.9823993  53.6847546
  19.6506819  45.8514837  66.4754669  18.9570290  45.4368790  65.9624623
  20.3979810  45.8935374  65.8788088  35.7872040  36.6421024  61.3409703
  35.2070709  37.3005828  60.9587756  35.5207972  35.8198368  60.9297121
  34.2375606  36.0426082  63.5431024  34.7375384  36.1542616  62.7345342
  34.8811214  35.7387134  64.1831832  28.2957602  43.9504711  76.4298865
  27.8124684  44.7505071  76.6362754  28.3818541  43.9612656  75.4766309
  21.5643561  45.7833091  64.3520684  21.5414250  45.8820778  63.4002567
  21.8744198  46.6298242  64.6737850  24.2230939  47.8409246  68.4667298
  25.1774193  47.8093188  68.3997230  24.0243463  47.3799870  69.2817524
  24.8130321  46.4110362  71.0338096  25.6323210  46.9054441  71.0572933
  25.0867129  45.4942330  71.0055663  34.5696918  38.8021114  60.3966051
  33.6822773  39.0870765  60.1786246  34.9850907  38.6414878  59.5493328
  37.9211454  38.8267635  64.1120391  38.6971844  39.3164088  64.3845008
  37.1959588  39.2525689  64.5692260  40.3584012  39.5395254  65.1694331
  40.9528503  39.2990990  64.4587640  40.4310596  38.8202385  65.7967868
  34.5437941  44.3175650  60.6116342  34.4873143  44.7744202  59.7723974
  35.0966284  43.5566335  60.4339184  38.3542747  40.1065382  61.4366461
  38.0979682  39.7062018  62.2674669  37.7295615  40.8209176  61.3116600
  42.6655085  42.8461455  63.9437753  42.1054643  42.9154645  64.7169315
  42.0598588  42.6702440  63.2237249  35.2772721  45.5080431  57.9068871
  35.2221524  45.3424703  56.9657315  34.6518776  46.2156464  58.0631061
  20.0665236  40.7448496  71.7330293  20.7124099  40.2347450  72.2217518
  19.8582387  41.4817177  72.3073718  28.5868846  35.0088540  57.4854189
  28.5747516  35.9530380  57.6422460  29.4792268  34.8258686  57.1913650
  32.4020966  31.6031317  61.7400126  31.6353361  31.0489804  61.8856808
  32.8131671  31.6753186  62.6014278  24.4062727  37.8916113  75.8305307
  25.2694188  37.5352918  76.0408632  23.8328137  37.5530008  76.5180712
  46.1416693  57.5640928  58.6205587  47.0534549  57.7968315  58.4453284
  45.6326340  58.1477972  58.0580665  48.6275507  63.4821184  63.3663532
  47.9426545  63.8620086  62.8160565  48.7119356  64.0916511  64.0995480
  48.7653908  61.4876777  59.1345426  47.9883351  61.1487937  58.6900588
  49.4445389  61.4929400  58.4600391  40.1704969  60.5841948  53.6779960
  39.2632031  60.3531202  53.8771109  40.6676001  59.7879568  53.8653942
  49.1642405  60.5020484  61.5968348  49.0260304  60.6922080  60.6689537
  48.8078624  61.2639867  62.0536399  42.2321326  63.7391634  64.8587027
  41.8971159  63.6992404  65.7544677  41.7325272  63.0736350  64.3857437
  45.1680518  61.0847669  55.1324087  44.5509689  60.3594497  55.0357139
  44.6997007  61.8457029  54.7891161  47.9241972  58.0643019  62.2530574
  48.3902424  58.8971011  62.1790877  48.3749473  57.5988001  62.9575833
  48.9421212  64.3224645  59.4003800  49.4672536  64.6611917  58.6753121
  48.8543565  63.3871660  59.2166935  51.4526872  61.7899836  64.7832319
  52.2873764  62.2289640  64.9469879  51.5886001  61.3138489  63.9640565
  46.9829934  66.5789711  54.8704093  46.9043565  66.2449575  55.7639851
  47.8039601  67.0711479  54.8695565  44.5533886  63.8957707  54.4914071
  45.2569736  64.1007709  55.1071727  43.8296534  64.4634469  54.7563155
  55.0904858  74.8509887  66.6367708  55.7283268  74.7316634  65.9331048
  54.9725701  75.7990731  66.6955660  51.8994564  74.8037315  66.5729233
  51.5613076  74.6878380  65.6849768  52.7684333  74.4028480  66.5530239
  47.7581380  76.6572791  62.5626124  47.1946245  76.5662728  61.7942412
  47.6433775  75.8372696  63.0428616  52.3814347  75.9572167  72.5315438
  52.3702988  75.5624965  71.6595942  52.5434987  75.2238239  73.1249210
  45.3045812  78.1523983  65.4010344  46.0967104  77.8114808  64.9856644
  45.5442462  78.2618958  66.3212498  53.3380939  80.3243759  57.8740589
  52.6868919  80.9097840  57.4874603  54.1325302  80.8549954  57.9335626
  47.2636566  77.4132896  58.2727723  48.0367442  76.8661883  58.1340599
  47.6161965  78.2777146  58.4842185  49.1021608  78.7409279  71.4794622
  48.8111474  79.6454909  71.3641289  49.7378593  78.7825806  72.1938692
  50.0277815  76.1186127  68.0695982  50.6241388  75.8942149  67.3552945
  50.0852787  75.3770873  68.6721430  49.6002844  73.5725562  55.9046173
  49.8528364  73.0507084  55.1429636  48.6627403  73.4091708  56.0072857
  54.6446127  72.5761341  63.7120916  55.4309216  72.1580764  63.3611333
  54.9084831  73.4807433  63.8802565  54.8156204  78.0134191  58.4109573
  54.1802037  78.0868818  59.1230478  54.4853610  78.6027790  57.7328652
  60.0454554  72.5136574  64.6153895  60.7779726  71.9435791  64.8491724
  59.2893909  72.1258174  65.0560400  49.3199132  75.4753668  58.1070548
  49.2035391  74.7998572  58.7751632  49.4301392  74.9886042  57.2902701
  51.6630673  74.9363815  61.8117237  51.2988881  74.4094436  62.5230159
  52.5197789  74.5462285  61.6383723  51.3036160  69.9653715  56.8078586
  51.4710563  70.8333952  57.1749057  51.1133329  70.1280997  55.8839875
  54.0611494  78.4270694  68.4744416  53.7612217  79.3295733  68.3660223
  53.7162553  78.1602877  69.3265569  57.4608637  70.9453234  66.1541853
  56.5525515  70.8768643  65.8600614  57.4096233  71.4225179  66.9823679
  51.2825381  72.4211373  57.7925253  51.1625006  72.8668423  58.6310733
  50.5877970  72.7696690  57.2338791  49.0432273  85.1915014  61.4415384
  48.9656303  86.1422839  61.5203864  48.4393917  84.8460887  62.0990310
  59.3270284  69.1469673  67.9319727  58.6844664  69.4402206  67.2859522
  58.8225212  69.0322593  68.7372924  56.9810447  72.8932846  58.6205587
  57.8928304  73.1260233  58.4453284  56.4720094  73.4769890  58.0580665
  49.7895875  75.1728333  73.6594718  50.5310560  75.7113377  73.3829541
  49.0832861  75.7994622  73.8166270  55.2651215  77.3157474  72.2566879
  55.6734571  76.8739884  71.5121512  54.5428477  76.7410101  72.5101072
  55.5880030  77.8758664  66.0119168  54.9588892  78.0404378  65.3095236
  55.2005692  78.2900274  66.7830132  59.4669262  78.8113102  63.3663532
  58.7820300  79.1912004  62.8160565  59.5513111  79.4208429  64.0995480
  56.7220193  76.4573061  69.9658875  56.9337088  77.1004821  69.2893256
  56.6749941  75.6235378  69.4980805  51.1407992  77.6133072  63.2769253
  51.6046337  77.8920775  62.4873876  50.8764790  76.7116517  63.0942344
  50.0776878  73.7356225  60.0858818  50.7800921  74.1877268  60.5532745
  49.7457506  73.0940044  60.7138711  57.8366021  79.3345017  68.1381233
  58.6583465  78.9325204  67.8563914  57.8328424  79.2313251  69.0897349
  51.6022625  78.8829060  70.2941943  51.6667057  79.3449467  71.1300115
  50.8933549  78.2526425  70.4224253  65.9272014  75.6783765  64.4866204
  65.1735723  75.1091163  64.3310209  66.0619555  75.6446430  65.4336839
  51.3170642  80.5497167  60.1620924  51.1816317  81.3948703  60.5905771
  51.8580455  80.7516445  59.3986857  44.7700040  78.0672605  60.7348849
  45.2824560  78.8615856  60.8854413  45.4222753  77.3698896  60.6682450
  46.5794924  81.1838362  62.8171602  46.7561553  82.1056326  62.6292586
  47.3751758  80.8696781  63.2465982  52.9439119  81.1720734  74.2921266
  52.5002973  80.3857112  73.9742170  53.6056332  81.3599884  73.6265156
  47.7026240  82.7016535  68.8181944  48.2533665  82.5733599  68.0458938
  46.8637716  83.0011424  68.4676837  55.0420357  81.4523534  72.3202667
  55.0238832  82.2732415  71.8282936  55.9640277  81.3277609  72.5452808
  51.4993411  78.9667663  73.1626175  52.0321748  78.2055951  72.9325483
  50.9707492  78.6741315  73.9050330  54.6313389  74.0636340  57.1992252
  54.1160012  74.8340945  57.4380640  54.3590697  73.3901477  57.8225314
  59.6047663  76.8168695  59.1345426  58.8277105  76.4779855  58.6900588
  60.2839144  76.8221318  58.4600391  54.4199692  71.9363432  59.0252033
  54.1149827  72.2509582  59.8762177  55.3730134  72.0144852  59.0679366
  52.8646124  78.0953656  60.6744987  52.3367485  77.3606415  60.3618225
  52.3633626  78.8728332  60.4284956  57.8438970  76.2902676  65.7912034
  57.1862644  76.9801938  65.8792162  58.6479369  76.6799108  66.1346020
  56.6544428  74.6447049  63.8415975  57.1676310  75.2777041  64.3437685
  57.3045652  74.0448244  63.4759335  47.9234438  70.7877783  57.0547484
  47.0871751  71.1252470  57.3756759  47.7839208  70.6526763  56.1174621
  49.8987519  65.6314571  61.7626668  49.2451931  65.3163588  61.1383283
  49.8567993  65.0090311  62.4886491  51.0098724  75.9133866  53.6779960
  50.1025786  75.6823119  53.8771109  51.5069756  75.1171485  53.8653942
  53.9166803  84.6231373  56.5976647  53.2428501  84.9263070  57.2061604
  54.3032625  85.4260454  56.2482104  53.9160307  73.5187920  61.2176996
  54.6632126  74.0309317  60.9084118  54.1851897  73.1971973  62.0781390
  52.1886957  76.0146461  58.2003950  51.2798176  75.7305494  58.2976420
  52.2182041  76.4345539  57.3407257  57.4206225  79.6253050  61.9695118
  56.9668552  78.7843960  62.0260308  56.7900191  80.2614449  62.3069898
  56.3639144  70.5545036  63.1995785  55.6261901  70.0422423  63.5306028
  56.6165918  70.1145418  62.3879062  55.8639164  81.4629547  62.9044936
  56.1562138  82.0234604  62.1857302  56.3737784  81.7558108  63.6598095
  51.8863045  77.5555205  55.5392029  51.4482475  76.8391064  55.0797666
  52.6273486  77.7831319  54.9777120  48.6764211  72.2452141  62.0604125
  47.8632077  72.5446312  62.4669317  49.1723205  71.8507830  62.7778607
  50.8272789  82.2409898  63.9938389  50.7848968  82.4670744  63.0646921
  51.7435488  82.0073273  64.1424191  60.0036160  75.8312402  61.5968348
  59.8654058  76.0213998  60.6689537  59.6472379  76.5931784  62.0536399
  60.0305539  77.8988929  66.6079619  60.4642046  77.8064218  67.4562673
  60.7437120  77.8746429  65.9699635  48.9438590  79.1172927  63.7900352
  49.7379188  78.6223247  63.5882927  48.2330282  78.5890790  63.4268058
  53.7633434  81.4991023  68.1412720  53.8170457  82.0681959  68.9090436
  52.8948216  81.6692908  67.7766757  60.8921089  77.9412629  69.1412504
  61.0856979  78.8458440  69.3871779  60.7921707  77.4820048  69.9751090
  55.9536198  78.0919372  74.7153385  55.8021704  77.8629924  73.7983469
  55.9440877  79.0489973  74.7284730  52.7221534  75.6651285  69.6999652
  53.6513594  75.8162444  69.5268619  52.3012564  75.7535306  68.8448298
  51.5209866  79.6901949  67.4698189  51.3820952  79.3220734  68.3424127
  50.7324462  80.2049589  67.2982147  52.1158018  84.7911046  58.8123726
  52.2909773  84.3199089  59.6269348  51.4290806  85.4176812  59.0404986
  53.0715081  79.0683552  64.8587027  52.7364914  79.0284322  65.7544677
  52.5719027  78.4028268  64.3857437  56.0074273  76.4139586  55.1324087
  55.3903443  75.6886414  55.0357139  55.5390761  77.1748946  54.7891161
  57.6628404  81.1238495  72.7929867  57.6040950  80.4397715  72.1260450
  58.0647923  81.8657485  72.3410493  46.6819103  87.9400408  65.5863586
  46.9215701  88.5718933  66.2642604  45.8388300  87.5888448  65.8728945
  47.7972819  70.6325011  54.2545391  46.9202285  70.5113811  53.8907638
  48.2730572  69.8411089  54.0024280  57.6645812  79.0878079  71.0243847
  56.7772590  78.7504000  71.1470246  58.2344363  78.3561110  71.2612612
  51.1946965  83.7479531  67.9905090  51.1217136  84.5534502  68.5024394
  50.7524358  83.9471497  67.1653111  50.9836745  82.9851301  61.5007911
  50.2004266  83.5272981  61.5946136  51.6829490  83.5025281  61.9002153
  62.1463152  74.4986296  65.7860408  62.1353028  75.3811011  65.4154341
  61.2780532  74.1457847  65.5914945  53.6545648  83.6466365  70.1463249
  54.3673621  84.2813830  70.0739150  53.1635677  83.7430231  69.3303250
  55.3763175  77.5517618  61.7180540  54.4419454  77.6719080  61.5485245
  55.5539844  76.6490084  61.4540550  58.7635727  73.3934937  62.2530574
  59.2296179  74.2262928  62.1790877  59.2143227  72.9279918  62.9575833
  48.7057562  81.3960808  70.9668819  49.4067021  82.0297291  71.1198214
  48.2352677  81.7375540  70.2064459  56.8311958  79.7378758  59.2516726
  57.1071802  79.6235353  60.1610600  55.9616457  79.3396243  59.2128899
  56.5058848  73.9505416  68.7921370  55.8530298  74.1981323  68.1373822
  56.8839228  73.1369554  68.4583847  53.4666022  83.9865109  62.8949540
  53.6488416  83.1686765  63.3577292  54.2899008  84.2032801  62.4574430
  53.8008187  82.9133294  60.1564588  54.3295954  82.4025749  59.5434751
  54.0636407  82.5975824  61.0210121  44.3025280  80.9297163  67.8999922
  44.8878717  80.1840851  68.0327826  44.1050119  81.2401120  68.7836586
  47.1563935  83.9648411  62.9162364  46.4874311  84.4494538  62.4326404
  47.0176805  84.2117631  63.8305743  51.2969204  85.9992154  69.5145023
  51.8487512  86.1623776  70.2794108  51.6375397  86.5896592  68.8425048
  56.1480078  80.8253412  75.3693677  56.6919982  81.4383370  74.8748632
  55.5666923  81.3832990  75.8860690  54.4337591  83.9474130  66.5008705
  54.3088731  83.1463870  65.9919650  55.0916682  84.4420323  66.0122675
  56.4972500  81.7483150  68.1288255  55.5502835  81.6288501  68.0566582
  56.8455273  80.8605648  68.2114516  53.5018933  81.5435866  64.3292607
  53.3543895  80.6152574  64.5100177  54.3272426  81.5655957  63.8449682
  57.1053055  82.3664425  65.4157480  58.0299602  82.1607286  65.2781931
  56.9368358  82.1180826  66.3246821  49.3549324  68.6928555  58.3866392
  50.0757687  69.0709808  57.8830109  48.7314628  69.4117432  58.4901370
  53.4980447  69.3973704  59.3224724  53.7144062  70.2798342  59.0213553
  53.0174514  69.0059917  58.5930366  56.8948371  82.8850092  60.7719571
  57.0685248  82.3196515  60.0193424  57.3877262  83.6850987  60.5899061
  49.5012947  68.2276345  61.2163929  49.6228859  67.2992991  61.4154816
  49.2114990  68.2415031  60.3042244  62.7487762  75.6486515  62.3909871
  63.1918908  74.8993840  61.9928994  61.8714272  75.6396652  62.0083603
  57.8823543  82.2016857  57.8716470  58.5774448  82.8223549  58.0903784
  58.2246694  81.3512208  58.1468848  59.7814966  79.6516562  59.4003800
  60.3066291  79.9903835  58.6753121  59.6937319  78.7163578  59.2166935
  51.4435015  83.5650636  71.5293677  51.7522142  83.3199783  72.4016377
  52.2410497  83.7697274  71.0412547  51.4655627  85.7188546  63.7599054
  51.0260618  85.2264924  64.4531910  52.2163744  85.1761513  63.5191129
  43.9447966  81.9100086  63.7623682  44.7705986  81.6103858  63.3822325
  43.5942018  81.1407709  64.2113470  48.9129499  81.2626555  65.8321355
  48.2909509  80.5997260  65.5323583  49.5834366  81.2887687  65.1495003
  42.1456571  79.8286413  64.7212615  41.3088480  79.4008587  64.5396617
  42.1180217  80.0218856  65.6583407  59.4708873  80.2849466  74.7054998
  58.6804416  80.2673605  74.1659498  59.2342227  80.8237760  75.4604035
  59.5906748  77.1341932  72.0187727  59.6404753  76.9691940  72.9603250
  59.4820671  76.2669191  71.6285608  48.4743006  79.8130478  59.3079816
  48.6231127  80.4965942  58.6546489  49.2809450  79.7935568  59.8229272
  56.8810510  73.1172860  73.3347034  57.7820373  72.9779325  73.0431031
  56.9558485  73.2827315  74.2745211  61.0924944  79.5538874  72.2629749
  60.8009753  79.9168854  73.0993209  60.4797076  78.8405882  72.0843081
  62.2920627  77.1191754  64.7832319  63.1267518  77.5581558  64.9469879
  62.4279756  76.6430407  63.9640565  59.3412133  74.6771488  70.7309807
  59.8166254  74.8699135  69.9228658  58.4177698  74.7330674  70.4853190
  46.2295639  75.8395656  60.3140885  45.9841681  74.9357986  60.5121095
  46.3991554  75.8412806  59.3720363  51.9738412  82.3078608  56.7791563
  51.4012379  82.9268796  56.3262035  52.5471205  82.8577970  57.3131485
  58.0413802  71.5537248  68.9638112  58.9931225  71.6535346  68.9850336
  57.8717252  70.7615517  69.4736196  55.1935672  82.5915759  57.9100146
  56.1266345  82.5261320  58.1133021  55.1058884  83.4272025  57.4514678
  57.8223688  81.9081629  54.8704093  57.7437320  81.5741492  55.7639851
  58.6433355  82.4003397  54.8695565  60.5201879  74.7743368  68.0780412
  60.4878200  73.8359369  68.2640096  61.1302503  74.8527405  67.3446237
  52.3585210  73.6439421  54.1207616  53.3044315  73.5145629  54.1896034
  51.9799455  72.9054083  54.5977044  60.6696368  71.5654412  68.1238695
  60.1535417  70.7812868  67.9368624  61.5536316  71.2373128  68.2885214
  58.3307095  65.3095427  64.0834508  58.1331916  65.0010515  64.9677840
  58.9406800  66.0357066  64.2132437  66.3378429  75.8359375  67.2186449
  67.0681818  75.5744663  67.7794152  65.7285375  75.0988097  67.2588517
  64.4193726  73.9767238  67.8160900  63.6926890  73.8423203  67.2077391
  64.0041013  74.2844066  68.6217618  52.2423903  77.6957167  75.5808273
  53.1626912  77.8735766  75.7748319  52.2073486  76.7513213  75.4287972
  50.5428127  71.5689398  54.0562501  49.6359583  71.2722510  54.1325215
  50.8204108  71.2719216  53.1896787  52.1590193  66.1126287  60.2106742
  51.3490922  65.7673372  60.5861988  52.8474610  65.8033831  60.7994354
  54.0880741  65.1904334  61.8331039  54.6411780  65.6099787  62.4921062
  54.3250828  64.2640082  61.8753995  49.3126912  68.4276333  54.1974480
  50.1746076  68.7531231  54.4570298  49.4977256  67.6407829  53.6847546
  41.3294328  76.5098672  66.4754669  40.6357799  76.0952625  65.9624623
  42.0767319  76.5519209  65.8788088  57.4659549  67.3004859  61.3409703
  56.8858218  67.9589663  60.9587756  57.1995481  66.4782204  60.9297121
  55.9163115  66.7009917  63.5431024  56.4162893  66.8126451  62.7345342
  56.5598723  66.3970970  64.1831832  43.2431070  76.4416926  64.3520684
  43.2201758  76.5404614  63.4002567  43.5531707  77.2882077  64.6737850
  45.9018448  78.4993081  68.4667298  46.8561702  78.4677024  68.3997230
  45.7030972  78.0383705  69.2817524  46.4917830  77.0694197  71.0338096
  47.3110719  77.5638276  71.0572933  46.7654638  76.1526165  71.0055663
  56.2484427  69.4604950  60.3966051  55.3610282  69.7454600  60.1786246
  56.6638416  69.2998713  59.5493328  59.5998963  69.4851471  64.1120391
  60.3759353  69.9747923  64.3845008  58.8747097  69.9109525  64.5692260
  62.0371521  70.1979090  65.1694331  62.6316012  69.9574826  64.4587640
  62.1098105  69.4786220  65.7967868  44.2568677  84.0412701  65.4837496
  44.1223145  83.2813102  64.9175494  43.8400739  84.7653601  65.0166285
  55.3927640  79.2249624  54.4914071  56.0963490  79.4299627  55.1071727
  54.6690289  79.7926386  54.7563155  56.2225450  74.9759486  60.6116342
  56.1660652  75.4328037  59.7723974  56.7753793  74.2150170  60.4339184
  60.0330256  70.7649217  61.4366461  59.7767190  70.3645853  62.2674669
  59.4083124  71.4793011  61.3116600  64.3442594  73.5045291  63.9437753
  63.7842152  73.5738480  64.7169315  63.7386097  73.3286275  63.2237249
  47.4137803  84.9382018  65.6955939  47.2970187  85.8827450  65.5934629
  46.5930249  84.6355579  66.0841738  57.3014337  79.6632153  56.5412532
  58.1359941  79.2313352  56.3590006  57.1398680  79.4914167  57.4689426
  56.9560230  76.1664267  57.9068871  56.9009033  76.0008538  56.9657315
  56.3306285  76.8740300  58.0631061  54.2706137  78.4713179  77.2322434
  55.1397296  78.6453831  76.8709069  53.7912888  79.2907595  77.1098163
  50.2656355  65.6672376  57.4854189  50.2535025  66.6114216  57.6422460
  51.1579777  65.4842521  57.1913650  48.4392317  85.5910280  68.9111867
  49.3419564  85.6233890  69.2278362  48.2129687  84.6610731  68.9258203
  50.1945919  84.3441266  65.5721946  49.2441550  84.3443128  65.4586318
  50.4978405  83.5974001  65.0557980  65.9298613  90.1801805  66.6367708
  66.5677023  90.0608552  65.9331048  65.8119455  91.1282649  66.6955660
  62.7388319  90.1329233  66.5729233  62.4006830  90.0170297  65.6849768
  63.6078087  89.7320398  66.5530239  58.5975135  91.9864709  62.5626124
  58.0340000  91.8954646  61.7942412  58.4827530  91.1664614  63.0428616
  63.2208102  91.2864084  72.5315438  63.2096743  90.8916883  71.6595942
  63.3828741  90.5530157  73.1249210  56.1439566  93.4815901  65.4010344
  56.9360858  93.1406725  64.9856644  56.3836217  93.5910876  66.3212498
  64.1774693  95.6535677  57.8740589  63.5262673  96.2389757  57.4874603
  64.9719056  96.1841872  57.9335626  58.1030320  92.7424814  58.2727723
  58.8761196  92.1953801  58.1340599  58.4555719  93.6069063  58.4842185
  59.9415363  94.0701196  71.4794622  59.6505229  94.9746827  71.3641289
  60.5772347  94.1117724  72.1938692  60.8671570  91.4478045  68.0695982
  61.4635142  91.2234067  67.3552945  60.9246541  90.7062790  68.6721430
  60.4396598  88.9017480  55.9046173  60.6922119  88.3799001  55.1429636
  59.5021157  88.7383626  56.0072857  65.4839881  87.9053258  63.7120916
  66.2702970  87.4872682  63.3611333  65.7478585  88.8099351  63.8802565
  65.6549958  93.3426109  58.4109573  65.0195791  93.4160735  59.1230478
  65.3247365  93.9319708  57.7328652  70.8848308  87.8428492  64.6153895
  71.6173480  87.2727708  64.8491724  70.1287664  87.4550092  65.0560400
  60.1592887  90.8045586  58.1070548  60.0429145  90.1290489  58.7751632
  60.2695147  90.3177960  57.2902701  62.5024428  90.2655733  61.8117237
  62.1382635  89.7386354  62.5230159  63.3591544  89.8754202  61.6383723
  68.4073729  81.5550066  69.0748503  68.0757053  82.4245477  68.8509718
  67.8119342  81.2386350  69.7542534  62.1429915  85.2945633  56.8078586
  62.3104317  86.1625869  57.1749057  61.9527084  85.4572915  55.8839875
  64.9005248  93.7562612  68.4744416  64.6005971  94.6587651  68.3660223
  64.5556308  93.4894795  69.3265569  58.3517730  90.2076409  64.5081121
  57.4268226  90.0752623  64.7158812  58.6002143  90.9870628  65.0051063
  68.3002392  86.2745152  66.1541853  67.3919269  86.2060560  65.8600614
  68.2489988  86.7517097  66.9823679  62.1219136  87.7503290  57.7925253
  62.0018761  88.1960341  58.6310733  61.4271724  88.0988608  57.2338791
  55.7126541  89.8509682  65.3424910  55.8418922  90.1044161  66.2564321
  55.0323992  90.4437390  65.0229565  59.8826028 100.5206932  61.4415384
  59.8050058 101.4714757  61.5203864  59.2787671 100.1752805  62.0990310
  62.3743258  87.6934798  74.0976751  61.5976592  88.2528718  74.0879615
  63.0133821  88.1791580  74.6191621  70.1664038  84.4761590  67.9319727
  69.5238418  84.7694123  67.2859522  69.6618967  84.3614511  68.7372924
  67.8204202  88.2224764  58.6205587  68.7322058  88.4552150  58.4453284
  67.3113849  88.8061808  58.0580665  60.6289630  90.5020251  73.6594718
  61.3704314  91.0405295  73.3829541  59.9226615  91.1286540  73.8166270
  66.1044970  92.6449391  72.2566879  66.5128326  92.2031802  71.5121512
  65.3822231  92.0702019  72.5101072  62.4576040  87.5821998  69.6300436
  63.3037235  88.0061412  69.7735085  62.3974677  86.9255622  70.3238999
  66.4273784  93.2050582  66.0119168  65.7982647  93.3696296  65.3095236
  66.0399446  93.6192192  66.7830132  70.3063016  94.1405020  63.3663532
  69.6214054  94.5203921  62.8160565  70.3906865  94.7500346  64.0995480
  65.6075485  85.2426366  71.2881610  65.3636417  85.9968427  70.7515886
  65.8835415  85.6211714  72.1228857  67.5613948  91.7864979  69.9658875
  67.7730843  92.4296739  69.2893256  67.5143696  90.9527295  69.4980805
  65.1640177  84.3982799  66.8695448  64.3024656  84.6964053  67.1612185
  65.1902611  84.6153198  65.9376480  61.9801746  92.9424990  63.2769253
  62.4440092  93.2212693  62.4873876  61.7158544  92.0408435  63.0942344
  58.8725827  92.4896472  66.2149016  59.4427184  92.9183740  65.5766501
  59.4633939  92.2079056  66.9133202  60.9170632  89.0648142  60.0858818
  61.6194675  89.5169186  60.5532745  60.5851261  88.4231961  60.7138711
  59.3650994  87.6559899  74.4610028  58.7349654  88.3376180  74.6945425
  59.2587082  87.5442981  73.5163166  54.6595966  87.3231695  65.3875952
  53.8695020  87.5789224  64.9116063  55.1507213  88.1380033  65.4927992
  68.6759776  94.6636934  68.1381233  69.4977219  94.2617122  67.8563914
  68.6722179  94.5605168  69.0897349  56.6110711  87.6876274  62.3459429
  55.8141875  87.7994969  62.8642924  56.3836304  88.0262927  61.4800319
  62.4416379  94.2120978  70.2941943  62.5060812  94.6741385  71.1300115
  61.7327303  93.5818342  70.4224253  52.9433669  87.5762186  67.8190943
  53.1941708  88.4609195  68.0848519  53.4793217  87.3966787  67.0466035
  76.7665769  91.0075683  64.4866204  76.0129477  90.4383081  64.3310209
  76.9013310  90.9738347  65.4336839  62.1564397  95.8789085  60.1620924
  62.0210072  96.7240621  60.5905771  62.6974209  96.0808363  59.3986857
  58.6431736  81.9580665  76.8235279  58.2498682  81.4046863  77.4982923
  59.4597877  82.2691243  77.2141796  55.6093794  93.3964523  60.7348849
  56.1218315  94.1907773  60.8854413  56.2616507  92.6990814  60.6682450
  57.4188679  96.5130279  62.8171602  57.5955307  97.4348244  62.6292586
  58.2145512  96.1988699  63.2465982  61.5599697  83.3738544  74.4155535
  62.3009411  83.9745697  74.3359998  61.7917620  82.6316182  73.8573578
  56.7041035  88.5594911  72.6933765  56.5894551  87.6580168  72.9940864
  55.8485553  88.8058608  72.3418582  63.7832873  96.5012652  74.2921266
  63.3396727  95.7149030  73.9742170  64.4450087  96.6891802  73.6265156
  58.5419994  98.0308453  68.8181944  59.0927419  97.9025517  68.0458938
  57.7031470  98.3303342  68.4676837  65.8814111  96.7815451  72.3202667
  65.8632587  97.6024333  71.8282936  66.8034031  96.6569527  72.5452808
  62.3387165  94.2959581  73.1626175  62.8715502  93.5347869  72.9325483
  61.8101246  94.0033233  73.9050330  65.5056860  79.4019647  68.6919817
  65.1621130  80.2921289  68.6158928  65.8735823  79.2121305  67.8289402
  53.5742711  91.7253177  61.5108419  54.4117933  92.1350186  61.2942127
  53.7520979  90.7852620  61.4808613  65.4707143  89.3928258  57.1992252
  64.9553766  90.1632863  57.4380640  65.1984452  88.7193394  57.8225314
  63.0554254  84.2377959  62.2577491  62.1995850  83.8484809  62.0783129
  63.4681206  84.3169920  61.3977276  64.5853401  81.7724302  66.6569050
  64.0818196  81.7354437  65.8436856  64.8784008  82.6817045  66.7165707
  60.8296287  81.8563032  65.6635232  61.6949283  81.6605840  65.3041121
  60.8973796  81.6273384  66.5904589  70.4441417  92.1460613  59.1345426
  69.6670860  91.8071772  58.6900588  71.1232898  92.1513236  58.4600391
  65.2593446  87.2655350  59.0252033  64.9543582  87.5801499  59.8762177
  66.2123888  87.3436770  59.0679366  63.7039878  93.4245573  60.6744987
  63.1761240  92.6898333  60.3618225  63.2027381  94.2020250  60.4284956
  68.6832724  91.6194594  65.7912034  68.0256399  92.3093855  65.8792162
  69.4873123  92.0091026  66.1346020  58.4358606  84.0865240  63.0351599
  59.0102358  83.8640421  62.3024792  59.0229588  84.1553934  63.7880200
  67.4938183  89.9738967  63.8415975  68.0070065  90.6068958  64.3437685
  68.1439407  89.3740162  63.4759335  58.7628193  86.1169701  57.0547484
  57.9265505  86.4544387  57.3756759  58.6232962  85.9818681  56.1174621
  60.7381273  80.9606489  61.7626668  60.0845686  80.6455506  61.1383283
  60.6961748  80.3382229  62.4886491  61.8492478  91.2425784  53.6779960
  60.9419540  91.0115037  53.8771109  62.3463510  90.4463403  53.8653942
  64.7560557  99.9523291  56.5976647  64.0822256 100.2554988  57.2061604
  65.1426379 100.7552371  56.2482104  63.9719014  87.4488422  66.0874316
  63.0541575  87.6703369  65.9296004  64.3879157  87.5234733  65.2286023
  64.7554062  88.8479838  61.2176996  65.5025880  89.3601235  60.9084118
  65.0245651  88.5263891  62.0781390  63.0280712  91.3438379  58.2003950
  62.1191931  91.0597411  58.2976420  63.0575796  91.7637457  57.3407257
  68.2599979  94.9544968  61.9695118  67.8062306  94.1135878  62.0260308
  67.6293946  95.5906366  62.3069898  67.2032899  85.8836954  63.1995785
  66.4655655  85.3714340  63.5306028  67.4559672  85.4437336  62.3879062
  66.7032918  96.7921465  62.9044936  66.9955893  97.3526522  62.1857302
  67.2131539  97.0850026  63.6598095  67.3044526  78.6613206  63.7937555
  67.6103403  77.8010570  63.5063470  68.0297131  79.2530826  63.5936549
  53.5968882  89.0643893  62.1819153  53.3993282  88.4713253  61.4570219
  53.0415546  88.7596103  62.8995091  61.5765606  88.9566999  64.3013746
  61.6314216  88.0040836  64.2256222  60.7656808  89.1126438  64.7855044
  62.7256800  92.8847122  55.5392029  62.2876229  92.1682981  55.0797666
  63.4667240  93.1123237  54.9777120  59.5157966  87.5744059  62.0604125
  58.7025831  87.8738229  62.4669317  60.0116960  87.1799748  62.7778607
  61.6666544  97.5701816  63.9938389  61.6242722  97.7962662  63.0646921
  62.5829242  97.3365190  64.1424191  65.1132177  88.0385883  70.8919019
  65.4681565  88.2657357  71.7513484  65.7604309  88.3704260  70.2696274
  70.8429914  91.1604319  61.5968348  70.7047813  91.3505915  60.6689537
  70.4866133  91.9223702  62.0536399  59.0072040  85.1462414  67.6765360
  59.6471420  85.0051174  66.9788323  58.1749571  84.8596928  67.3003962
  70.8699294  93.2280846  66.6079619  71.3035801  93.1356135  67.4562673
  71.5830875  93.2038347  65.9699635  59.7832344  94.4464845  63.7900352
  60.5772943  93.9515165  63.5882927  59.0724037  93.9182708  63.4268058
  64.6027189  96.8282940  68.1412720  64.6564211  97.3973877  68.9090436
  63.7341970  96.9984825  67.7766757  56.0915108  88.5907927  59.8660105
  55.1612696  88.5292382  60.0830067  56.1872580  88.0683879  59.0696746
  56.0100657  85.1162739  62.4538346  56.2707474  86.0308073  62.3447507
  56.8317829  84.6487182  62.6034959  57.4825582  86.5300497  69.6237171
  58.1548636  86.3217859  68.9749820  56.6555369  86.3322583  69.1842403
  71.7314843  93.2704547  69.1412504  71.9250734  94.1750357  69.3871779
  71.6315462  92.8111966  69.9751090  63.3851154  83.1562438  71.6402832
  62.7379069  83.8552387  71.5467308  64.1552170  83.5898581  72.0079080
  66.7929952  93.4211290  74.7153385  66.6415459  93.1921841  73.7983469
  66.7834632  94.3781891  74.7284730  63.5615289  90.9943202  69.6999652
  64.4907349  91.1454362  69.5268619  63.1406319  91.0827223  68.8448298
  62.3603620  95.0193867  67.4698189  62.2214706  94.6512651  68.3424127
  61.5718217  95.5341506  67.2982147  62.9551772 100.1202963  58.8123726
  63.1303528  99.6491007  59.6269348  62.2684560 100.7468730  59.0404986
  63.9108835  94.3975470  64.8587027  63.5758668  94.3576240  65.7544677
  63.4112781  93.7320185  64.3857437  57.8853079  89.8043100  70.3839608
  57.7472877  89.0723338  70.9851147  58.7958003  89.7152000  70.1023796
  66.8468027  91.7431504  55.1324087  66.2297198  91.0178332  55.0357139
  66.3784516  92.5040864  54.7891161  60.5135380  89.5163059  69.8723288
  61.2234999  88.8756251  69.8309906  60.4704688  89.7675954  70.7949469
  68.5022159  96.4530412  72.7929867  68.4434705  95.7689632  72.1260450
  68.9041677  97.1949402  72.3410493  59.2264314  86.5028277  71.6918927
  58.6901671  86.0519015  72.3440524  58.6381023  86.6374186  70.9489392
  57.5212858 103.2692326  65.5863586  57.7609456 103.9010850  66.2642604
  56.6782054 102.9180366  65.8728945  58.6366573  85.9616928  54.2545391
  57.7596039  85.8405729  53.8907638  59.1124326  85.1703006  54.0024280
  68.5039566  94.4169996  71.0243847  67.6166345  94.0795918  71.1470246
  69.0738117  93.6853027  71.2612612  50.1568713  90.7494088  64.3486898
  50.8439753  90.4355818  63.7607913  50.0016842  91.6535453  64.0754149
  54.9603435  85.6384284  68.7771922  54.8761624  85.0309954  68.0422332
  54.1386142  86.1293303  68.7781418  62.0340719  99.0771449  67.9905090
  61.9610891  99.8826420  68.5024394  61.5918113  99.2763414  67.1653111
  61.8230499  98.3143219  61.5007911  61.0398021  98.8564899  61.5946136
  62.5223244  98.8317198  61.9002153  65.1327149  84.1237848  64.1442117
  65.6295849  83.3707810  63.8243187  64.3614131  84.1602165  63.5785326
  72.9856907  89.8278214  65.7860408  72.9746783  90.7102929  65.4154341
  72.1174286  89.4749764  65.5914945  64.4939403  98.9758283  70.1463249
  65.2067375  99.6105747  70.0739150  64.0029432  99.0722149  69.3303250
  66.2156930  92.8809535  61.7180540  65.2813209  93.0010998  61.5485245
  66.3933598  91.9782002  61.4540550  61.7162118  86.2655231  63.8713801
  61.3459905  85.7126271  64.5594707  62.2121210  85.6613364  63.3188801
  69.6029481  88.7226855  62.2530574  70.0689933  89.5554846  62.1790877
  70.0536982  88.2571836  62.9575833  59.5451316  96.7252726  70.9668819
  60.2460776  97.3589209  71.1198214  59.0746431  97.0667458  70.2064459
  67.6705712  95.0670676  59.2516726  67.9465556  94.9527270  60.1610600
  66.8010211  94.6688161  59.2128899  67.5746144  81.0907442  66.2921476
  66.6609224  81.3211668  66.4603683  68.0039245  81.1745886  67.1435508
  67.3452602  89.2797333  68.7921370  66.6924053  89.5273241  68.1373822
  67.7232982  88.4661472  68.4583847  64.3059776  99.3157027  62.8949540
  64.4882171  98.4978683  63.3577292  65.1292762  99.5324719  62.4574430
  64.6401942  98.2425212  60.1564588  65.1689708  97.7317666  59.5434751
  64.9030161  97.9267742  61.0210121  63.3940175  90.0217145  75.2787407
  62.7180813  89.9211274  75.9489782  64.2167809  89.8656358  75.7423404
  55.1419035  96.2589081  67.8999922  55.7272471  95.5132769  68.0327826
  54.9443873  96.5693038  68.7836586  57.9957690  99.2940328  62.9162364
  57.3268065  99.7786456  62.4326404  57.8570559  99.5409549  63.8305743
  49.7336689  88.8294681  66.6204365  49.7720789  88.2958272  67.4141483
  49.2276982  88.3029887  66.0015342  62.1362958 101.3284072  69.5145023
  62.6881266 101.4915693  70.2794108  62.4769152 101.9188510  68.8425048
  57.1127452  83.6759222  70.1166907  57.1768778  84.5374053  69.7044305
  57.0494572  83.0633223  69.3839266  56.5879724  85.7482354  73.7639942
  57.2151763  85.3659432  74.3777466  55.7307643  85.5296556  74.1295634
  66.9873833  96.1545329  75.3693677  67.5313737  96.7675288  74.8748632
  66.4060678  96.7124908  75.8860690  53.3645267  87.5558783  59.6958297
  53.6598708  86.6469462  59.6425350  52.4633303  87.5346523  59.3739299
  65.2731346  99.2766048  66.5008705  65.1482485  98.4755787  65.9919650
  65.9310437  99.7712241  66.0122675  56.8939514  85.6314780  65.6785845
  56.1726100  86.2450748  65.5393318  57.6832770  86.1672545  65.6002491
  67.3366254  97.0775068  68.1288255  66.3896590  96.9580419  68.0566582
  67.6849027  96.1897566  68.2114516  59.6965827  82.9669207  71.9526497
  60.2200229  83.2131503  72.7152806  59.4778161  83.7989241  71.5329634
  55.0933108  85.2372881  59.8197622  54.7645815  84.3570260  59.6372728
  55.4472479  85.1820550  60.7074011  64.3412687  96.8727784  64.3292607
  64.1937650  95.9444491  64.5100177  65.1666181  96.8947875  63.8449682
  58.2074932  85.5245851  60.1873099  58.5471004  86.0531772  59.4651708
  58.6547052  85.8626257  60.9631666  67.9446809  97.6956343  65.4157480
  68.8693357  97.4899204  65.2781931  67.7762113  97.4472744  66.3246821
  60.9018372  83.9082902  69.6376167  60.5615193  83.1090715  70.0396847
  60.1957379  84.2084612  69.0653001  61.5534844  80.9932214  68.0903490
  62.3760914  80.5192692  67.9682381  61.7972908  81.7722698  68.5902177
  60.1943079  84.0220472  58.3866392  60.9151441  84.4001725  57.8830109
  59.5708383  84.7409349  58.4901370  64.3374202  84.7265621  59.3224724
  64.5537816  85.6090259  59.0213553  63.8568269  84.3351835  58.5930366
  59.0773423  87.6851335  65.8995469  58.9318004  87.9991638  66.7919751
  58.5998627  88.3036235  65.3466368  60.9369806  84.6753883  65.9476359
  60.9231375  83.7794976  65.6108657  61.6542234  84.6824546  66.5814645
  62.7895937  85.1091223  67.9929486  62.5313714  86.0308294  67.9913816
  62.2580977  84.7121657  68.6829950  67.7342125  98.2142010  60.7719571
  67.9079003  97.6488432  60.0193424  68.2271017  99.0142905  60.5899061
  53.5519085  90.2256679  68.8383130  53.0072553  91.0016487  68.9703405
  54.4298435  90.5727484  68.6802252  60.3406702  83.5568263  61.2163929
  60.4622613  82.6284909  61.4154816  60.0508744  83.5706949  60.3042244
  63.2097892  81.2423173  64.3530649  63.2319589  81.3062506  63.3982628
  63.6265951  80.4027682  64.5471155  73.5881517  90.9778433  62.3909871
  74.0312663  90.2285758  61.9928994  72.7108027  90.9688569  62.0083603
  68.7217298  97.5308774  57.8716470  69.4168202  98.1515467  58.0903784
  69.0640448  96.6804126  58.1468848  54.3385107  89.3526575  71.7313287
  53.5966843  89.5009211  72.3177918  54.0177851  89.6134841  70.8680037
  70.6208721  94.9808480  59.4003800  71.1460045  95.3195753  58.6753121
  70.5331074  94.0455495  59.2166935  62.2828770  98.8942554  71.5293677
  62.5915896  98.6491700  72.4016377  63.0804252  99.0989192  71.0412547
  62.3049382 101.0480463  63.7599054  61.8654372 100.5556842  64.4531910
  63.0557499 100.5053431  63.5191129  54.7841721  97.2392004  63.7623682
  55.6099741  96.9395776  63.3822325  54.4335773  96.4699627  64.2113470
  59.7523254  96.5918472  65.8321355  59.1303263  95.9289177  65.5323583
  60.4228121  96.6179604  65.1495003  52.9850326  95.1578331  64.7212615
  52.1482234  94.7300505  64.5396617  52.9573971  95.3510774  65.6583407
  59.8247781  85.0700260  75.4253861  59.8735937  85.9462383  75.0431631
  60.3670296  84.5277653  74.8525505  70.3102627  95.6141384  74.7054998
  69.5198171  95.5965522  74.1659498  70.0735982  96.1529677  75.4604035
  70.4300502  92.4633850  72.0187727  70.4798507  92.2983857  72.9603250
  70.3214425  91.5961109  71.6285608  59.3136761  95.1422396  59.3079816
  59.4624881  95.8257860  58.6546489  60.1203204  95.1227486  59.8229272
  67.7204264  88.4464778  73.3347034  68.6214127  88.3071243  73.0431031
  67.7952239  88.6119233  74.2745211  62.0547070  85.8231633  72.1800220
  61.1850379  86.1165199  71.9082809  62.2906550  86.4072078  72.9007484
  71.9318699  94.8830791  72.2629749  71.6403507  95.2460772  73.0993209
  71.3190830  94.1697800  72.0843081  73.1314381  92.4483671  64.7832319
  73.9661273  92.8873475  64.9469879  73.2673510  91.9722324  63.9640565
  70.1805887  90.0063406  70.7309807  70.6560009  90.1991052  69.9228658
  69.2571453  90.0622592  70.4853190  57.0689394  91.1687573  60.3140885
  56.8235436  90.2649903  60.5121095  57.2385308  91.1704724  59.3720363
  64.7586104  82.0411250  69.6965640  65.2768048  82.7772277  69.3712129
  64.4041236  82.3475243  70.5312400  56.3385041  86.9015931  57.8127046
  55.6454286  86.9760286  57.1567082  56.0936793  86.1376274  58.3348563
  65.0098698  78.4611532  65.2166537  65.2900452  77.7934721  65.8426964
  65.7949305  78.6540628  64.7041201  62.8132166  97.6370526  56.7791563
  62.2406133  98.2560713  56.3262035  63.3864960  98.1869888  57.3131485
  68.8807556  86.8829166  68.9638112  69.8324979  86.9827264  68.9850336
  68.7111007  86.0907435  69.4736196  66.9021936  83.9684749  69.1497513
  66.3071868  84.2489762  68.4544002  66.6171632  84.4578650  69.9214254
  66.0329426  97.9207676  57.9100146  66.9660099  97.8553238  58.1133021
  65.9452639  98.7563943  57.4514678  68.6617443  97.2373547  54.8704093
  68.5831074  96.9033410  55.7639851  69.4827110  97.7295314  54.8695565
  71.3595634  90.1035286  68.0780412  71.3271954  89.1651287  68.2640096
  71.9696258  90.1819323  67.3446237  63.1978965  88.9731339  54.1207616
  64.1438070  88.8437547  54.1896034  62.8193210  88.2346001  54.5977044
  71.5090122  86.8946329  68.1238695  70.9929171  86.1104786  67.9368624
  72.3930071  86.5665046  68.2885214  69.1700849  80.6387345  64.0834508
  68.9725670  80.3302433  64.9677840  69.7800555  81.3648984  64.2132437
  77.1772184  91.1651293  67.2186449  77.9075572  90.9036581  67.7794152
  76.5679129  90.4280015  67.2588517  75.2587481  89.3059155  67.8160900
  74.5320645  89.1715120  67.2077391  74.8434768  89.6135984  68.6217618
  63.0817657  93.0249085  75.5808273  64.0020667  93.2027684  75.7748319
  63.0467240  92.0805130  75.4287972  61.3821882  86.8981315  54.0562501
  60.4753337  86.6014428  54.1325215  61.6597863  86.6011133  53.1896787
  52.2999822  88.2187679  64.5061547  51.9802607  87.3652987  64.2135921
  51.7533251  88.4336257  65.2619515  56.0779730  90.9350120  68.2231054
  56.2965740  91.8667227  68.2419088  56.4905504  90.5758094  69.0085858
  62.9983948  81.4418205  60.2106742  62.1884676  81.0965290  60.5861988
  63.6868365  81.1325749  60.7994354  64.9274496  80.5196252  61.8331039
  65.4805535  80.9391705  62.4921062  65.1644582  79.5932000  61.8753995
  60.9507595  86.5083325  77.6133803  60.8504322  87.4577682  77.5445894
  60.7329137  86.1801564  76.7409873  60.1520667  83.7568250  54.1974480
  61.0139831  84.0823149  54.4570298  60.3371011  82.9699746  53.6847546
  52.1688082  91.8390590  66.4754669  51.4751554  91.4244543  65.9624623
  52.9161073  91.8811127  65.8788088  68.3053303  82.6296777  61.3409703
  67.7251972  83.2881581  60.9587756  68.0389236  81.8074122  60.9297121
  66.7556869  82.0301835  63.5431024  67.2556648  82.1418369  62.7345342
  67.3992477  81.7262887  64.1831832  60.8138865  89.9380464  76.4298865
  60.3305947  90.7380824  76.6362754  60.8999804  89.9488409  75.4766309
  54.0824825  91.7708844  64.3520684  54.0595513  91.8696531  63.4002567
  54.3925461  92.6173995  64.6737850  56.7412203  93.8284999  68.4667298
  57.6955456  93.7968941  68.3997230  56.5424726  93.3675623  69.2817524
  57.3311585  92.3986115  71.0338096  58.1504474  92.8930194  71.0572933
  57.6048393  91.4818083  71.0055663  67.0878181  84.7896867  60.3966051
  66.2004036  85.0746518  60.1786246  67.5032170  84.6290631  59.5493328
  70.4392717  84.8143388  64.1120391  71.2153107  85.3039841  64.3845008
  69.7140851  85.2401442  64.5692260  72.8765276  85.5271007  65.1694331
  73.4709767  85.2866743  64.4587640  72.9491860  84.8078138  65.7967868
  55.0962432  99.3704618  65.4837496  54.9616899  98.6105019  64.9175494
  54.6794494 100.0945518  65.0166285  66.2321395  94.5541542  54.4914071
  66.9357245  94.7591544  55.1071727  65.5084043  95.1218304  54.7563155
  67.0619205  90.3051403  60.6116342  67.0054406  90.7619955  59.7723974
  67.6147547  89.5442088  60.4339184  70.8724011  86.0941135  61.4366461
  70.6160945  85.6937771  62.2674669  70.2476879  86.8084929  61.3116600
  75.1836349  88.8337208  63.9437753  74.6235907  88.9030398  64.7169315
  74.5779852  88.6578193  63.2237249  58.2531557 100.2673935  65.6955939
  58.1363942 101.2119368  65.5934629  57.4324004  99.9647497  66.0841738
  68.1408092  94.9924071  56.5412532  68.9753696  94.5605270  56.3590006
  67.9792435  94.8206085  57.4689426  67.7953984  91.4956184  57.9068871
  67.7402788  91.3300456  56.9657315  67.1700039  92.2032217  58.0631061
  52.5846499  86.7324249  71.7330293  53.2305363  86.2223203  72.2217518
  52.3763650  87.4692930  72.3073718  65.1099891  93.8005096  77.2322434
  65.9791051  93.9745749  76.8709069  64.6306643  94.6199513  77.1098163
  61.1050110  80.9964293  57.4854189  61.0928779  81.9406133  57.6422460
  61.9973531  80.8134439  57.1913650  59.2786072 100.9202197  68.9111867
  60.1813318 100.9525808  69.2278362  59.0523442  99.9902648  68.9258203
  61.0339674  99.6733184  65.5721946  60.0835305  99.6735045  65.4586318
  61.3372160  98.9265918  65.0557980  64.9202229  77.5907070  61.7400126
  64.1534625  77.0365557  61.8856808  65.3312934  77.6628939  62.6014278
  56.9243990  83.8791866  75.8305307  57.7875452  83.5228671  76.0408632
  56.3509401  83.5405761  76.5180712  76.7692367 105.5093722  66.6367708
  77.4070777 105.3900470  65.9331048  76.6513210 106.4574566  66.6955660
  73.5782073 105.4621150  66.5729233  73.2400585 105.3462215  65.6849768
  74.4471842 105.0612315  66.5530239  69.4368889 107.3156627  62.5626124
  68.8733754 107.2246564  61.7942412  69.3221284 106.4956531  63.0428616
  74.0601856 106.6156002  72.5315438  74.0490497 106.2208800  71.6595942
  74.2222496 105.8822075  73.1249210  66.9833321 108.8107818  65.4010344
  67.7754613 108.4698643  64.9856644  67.2229971 108.9202793  66.3212498
  68.9424075 108.0716732  58.2727723  69.7154951 107.5245719  58.1340599
  69.2949474 108.9360981  58.4842185  70.7809117 109.3993114  71.4794622
  70.4898983 110.3038745  71.3641289  71.4166102 109.4409642  72.1938692
  71.7065324 106.7769962  68.0695982  72.3028897 106.5525985  67.3552945
  71.7640296 106.0354708  68.6721430  71.2790353 104.2309398  55.9046173
  71.5315873 103.7090919  55.1429636  70.3414912 104.0675543  56.0072857
  76.3233636 103.2345176  63.7120916  77.1096725 102.8164599  63.3611333
  76.5872340 104.1391268  63.8802565  81.7242063 103.1720409  64.6153895
  82.4567235 102.6019626  64.8491724  80.9681418 102.7842010  65.0560400
  70.9986641 106.1337504  58.1070548  70.8822900 105.4582407  58.7751632
  71.1088901 105.6469878  57.2902701  73.3418182 105.5947651  61.8117237
  72.9776390 105.0678272  62.5230159  74.1985298 105.2046120  61.6383723
  79.2467483  96.8841983  69.0748503  78.9150808  97.7537394  68.8509718
  78.6513096  96.5678267  69.7542534  72.9823669 100.6237551  56.8078586
  73.1498072 101.4917787  57.1749057  72.7920838 100.7864832  55.8839875
  69.1911484 105.5368326  64.5081121  68.2661981 105.4044540  64.7158812
  69.4395897 106.3162546  65.0051063  79.1396146 101.6037070  66.1541853
  78.2313024 101.5352478  65.8600614  79.0883742 102.0809015  66.9823679
  72.9612890 103.0795208  57.7925253  72.8412515 103.5252259  58.6310733
  72.2665479 103.4280526  57.2338791  66.5520295 105.1801600  65.3424910
  66.6812676 105.4336079  66.2564321  65.8717746 105.7729308  65.0229565
  73.2137012 103.0226715  74.0976751  72.4370346 103.5820635  74.0879615
  73.8527575 103.5083498  74.6191621  81.0057793  99.8053508  67.9319727
  80.3632173 100.0986041  67.2859522  80.5012721  99.6906428  68.7372924
  78.6597956 103.5516681  58.6205587  79.5715813 103.7844068  58.4453284
  78.1507603 104.1353725  58.0580665  71.4683384 105.8312169  73.6594718
  72.2098069 106.3697213  73.3829541  70.7620370 106.4578457  73.8166270
  73.2969794 102.9113916  69.6300436  74.1430989 103.3353329  69.7735085
  73.2368432 102.2547540  70.3238999  76.4469239 100.5718284  71.2881610
  76.2030171 101.3260345  70.7515886  76.7229170 100.9503632  72.1228857
  76.0033931  99.7274717  66.8695448  75.1418410 100.0255971  67.1612185
  76.0296366  99.9445116  65.9376480  72.8195501 108.2716908  63.2769253
  73.2833846 108.5504611  62.4873876  72.5552299 107.3700352  63.0942344
  69.7119582 107.8188389  66.2149016  70.2820939 108.2475658  65.5766501
  70.3027693 107.5370974  66.9133202  71.7564387 104.3940060  60.0858818
  72.4588430 104.8461104  60.5532745  71.4245015 103.7523879  60.7138711
  70.2044748 102.9851817  74.4610028  69.5743409 103.6668098  74.6945425
  70.0980836 102.8734898  73.5163166  65.4989721 102.6523613  65.3875952
  64.7088775 102.9081141  64.9116063  65.9900968 103.4671951  65.4927992
  67.4504466 103.0168192  62.3459429  66.6535629 103.1286886  62.8642924
  67.2230058 103.3554844  61.4800319  63.7827424 102.9054103  67.8190943
  64.0335462 103.7901113  68.0848519  64.3186972 102.7258705  67.0466035
  69.4825491  97.2872583  76.8235279  69.0892436  96.7338781  77.4982923
  70.2991631  97.5983161  77.2141796  66.4487549 108.7256441  60.7348849
  66.9612069 109.5199691  60.8854413  67.1010261 108.0282731  60.6682450
  72.3993452  98.7030462  74.4155535  73.1403165  99.3037615  74.3359998
  72.6311375  97.9608099  73.8573578  67.5434790 103.8886829  72.6933765
  67.4288305 102.9872086  72.9940864  66.6879308 104.1350526  72.3418582
  76.3450615  94.7311565  68.6919817  76.0014884  95.6213206  68.6158928
  76.7129577  94.5413222  67.8289402  64.4136465 107.0545095  61.5108419
  65.2511687 107.4642103  61.2942127  64.5914733 106.1144537  61.4808613
  76.3100898 104.7220176  57.1992252  75.7947521 105.4924780  57.4380640
  76.0378206 104.0485312  57.8225314  73.8948009  99.5669876  62.2577491
  73.0389605  99.1776727  62.0783129  74.3074960  99.6461837  61.3977276
  75.4247155  97.1016220  66.6569050  74.9211951  97.0646355  65.8436856
  75.7177762  98.0108962  66.7165707  71.6690041  97.1854949  65.6635232
  72.5343038  96.9897758  65.3041121  71.7367550  96.9565301  66.5904589
  76.0987201 102.5947268  59.0252033  75.7937336 102.9093417  59.8762177
  77.0517643 102.6728688  59.0679366  69.2752360  99.4157157  63.0351599
  69.8496112  99.1932339  62.3024792  69.8623343  99.4845852  63.7880200
  78.3331937 105.3030884  63.8415975  78.8463819 105.9360876  64.3437685
  78.9833161 104.7032080  63.4759335  69.6021947 101.4461618  57.0547484
  68.7659260 101.7836305  57.3756759  69.4626717 101.3110598  56.1174621
  71.5775028  96.2898406  61.7626668  70.9239440  95.9747423  61.1383283
  71.5355502  95.6674147  62.4886491  72.6886233 106.5717701  53.6779960
  71.7813294 106.3406955  53.8771109  73.1857265 105.7755321  53.8653942
  74.8112768 102.7780340  66.0874316  73.8935330 102.9995287  65.9296004
  75.2272912 102.8526650  65.2286023  75.5947816 104.1771756  61.2176996
  76.3419635 104.6893153  60.9084118  75.8639406 103.8555808  62.0781390
  73.8674466 106.6730296  58.2003950  72.9585685 106.3889329  58.2976420
  73.8969550 107.0929375  57.3407257  78.0426653 101.2128872  63.1995785
  77.3049410 100.7006258  63.5306028  78.2953427 100.7729253  62.3879062
  78.1438280  93.9905124  63.7937555  78.4497157  93.1302487  63.5063470
  78.8690885  94.5822744  63.5936549  64.4362637 104.3935810  62.1819153
  64.2387036 103.8005171  61.4570219  63.8809301 104.0888021  62.8995091
  72.4159360 104.2858917  64.3013746  72.4707970 103.3332753  64.2256222
  71.6050562 104.4418356  64.7855044  73.5650554 108.2139040  55.5392029
  73.1269984 107.4974899  55.0797666  74.3060995 108.4415155  54.9777120
  70.3551720 102.9035977  62.0604125  69.5419586 103.2030147  62.4669317
  70.8510714 102.5091665  62.7778607  75.9525932 103.3677801  70.8919019
  76.3075320 103.5949274  71.7513484  76.5998063 103.6996178  70.2696274
  69.8465795 100.4754332  67.6765360  70.4865174 100.3343091  66.9788323
  69.0143325 100.1888846  67.3003962  70.6226099 109.7756763  63.7900352
  71.4166697 109.2807083  63.5882927  69.9117791 109.2474626  63.4268058
  66.9308862 103.9199844  59.8660105  66.0006450 103.8584300  60.0830067
  67.0266334 103.3975797  59.0696746  66.8494411 100.4454657  62.4538346
  67.1101229 101.3599990  62.3447507  67.6711584  99.9779100  62.6034959
  68.3219337 101.8592414  69.6237171  68.9942390 101.6509776  68.9749820
  67.4949123 101.6614500  69.1842403  74.2244909  98.4854355  71.6402832
  73.5772824  99.1844305  71.5467308  74.9945924  98.9190499  72.0079080
  74.4009043 106.3235120  69.6999652  75.3301103 106.4746280  69.5268619
  73.9800073 106.4119141  68.8448298  68.7246834 105.1335017  70.3839608
  68.5866632 104.4015256  70.9851147  69.6351757 105.0443917  70.1023796
  71.3529135 104.8454977  69.8723288  72.0628753 104.2048169  69.8309906
  71.3098443 105.0967871  70.7949469  70.0658069 101.8320194  71.6918927
  69.5295426 101.3810933  72.3440524  69.4774777 101.9666103  70.9489392
  69.4760328 101.2908846  54.2545391  68.5989794 101.1697647  53.8907638
  69.9518081 100.4994924  54.0024280  60.9962468 106.0786006  64.3486898
  61.6833507 105.7647736  63.7607913  60.8410596 106.9827370  64.0754149
  65.7997190 100.9676202  68.7771922  65.7155379 100.3601872  68.0422332
  64.9779896 101.4585220  68.7781418  75.9720904  99.4529766  64.1442117
  76.4689603  98.6999728  63.8243187  75.2007885  99.4894082  63.5785326
  72.5555872 101.5947149  63.8713801  72.1853660 101.0418189  64.5594707
  73.0514965 100.9905282  63.3188801  78.4139898  96.4199359  66.2921476
  77.5002978  96.6503586  66.4603683  78.8433000  96.5037803  67.1435508
  78.1846357 104.6089251  68.7921370  77.5317807 104.8565159  68.1373822
  78.5626737 103.7953389  68.4583847  60.5730444 104.1586599  66.6204365
  60.6114543 103.6250190  67.4141483  60.0670737 103.6321804  66.0015342
  67.9521206  99.0051139  70.1166907  68.0162533  99.8665970  69.7044305
  67.8888326  98.3925141  69.3839266  67.4273479 101.0774272  73.7639942
  68.0545517 100.6951349  74.3777466  66.5701397 100.8588474  74.1295634
  64.2039021 102.8850701  59.6958297  64.4992462 101.9761380  59.6425350
  63.3027057 102.8638441  59.3739299  67.7333268 100.9606698  65.6785845
  67.0119854 101.5742665  65.5393318  68.5226524 101.4964463  65.6002491
  70.5359582  98.2961124  71.9526497  71.0593984  98.5423421  72.7152806
  70.3171915  99.1281159  71.5329634  65.9326863 100.5664799  59.8197622
  65.6039569  99.6862178  59.6372728  66.2866234 100.5112467  60.7074011
  69.0468686 100.8537769  60.1873099  69.3864759 101.3823690  59.4651708
  69.4940807 101.1918175  60.9631666  71.7412127  99.2374819  69.6376167
  71.4008947  98.4382632  70.0396847  71.0351133  99.5376530  69.0653001
  72.3928599  96.3224132  68.0903490  73.2154668  95.8484610  67.9682381
  72.6366662  97.1014615  68.5902177  71.0336833  99.3512390  58.3866392
  71.7545196  99.7293643  57.8830109  70.4102137 100.0701267  58.4901370
  75.1767956 100.0557539  59.3224724  75.3931571 100.9382177  59.0213553
  74.6962023  99.6643753  58.5930366  69.9167178 103.0143252  65.8995469
  69.7711758 103.3283555  66.7919751  69.4392381 103.6328153  65.3466368
  71.7763560 100.0045800  65.9476359  71.7625129  99.1086894  65.6108657
  72.4935989 100.0116464  66.5814645  73.6289691 100.4383141  67.9929486
  73.3707469 101.3600211  67.9913816  73.0974731 100.0413575  68.6829950
  64.3912840 105.5548597  68.8383130  63.8466308 106.3308405  68.9703405
  65.2692190 105.9019401  68.6802252  71.1800456  98.8860181  61.2163929
  71.3016368  97.9576827  61.4154816  70.8902499  98.8998867  60.3042244
  74.0491647  96.5715091  64.3530649  74.0713344  96.6354424  63.3982628
  74.4659706  95.7319600  64.5471155  65.1778862 104.6818493  71.7313287
  64.4360598 104.8301128  72.3177918  64.8571606 104.9426759  70.8680037
  63.8244080 110.4870248  64.7212615  62.9875989 110.0592423  64.5396617
  63.7967726 110.6802692  65.6583407  70.6641536 100.3992178  75.4253861
  70.7129691 101.2754301  75.0431631  71.2064050  99.8569571  74.8525505
  70.1530515 110.4714313  59.3079816  70.3018636 111.1549778  58.6546489
  70.9596959 110.4519403  59.8229272  78.5598019 103.7756696  73.3347034
  79.4607882 103.6363160  73.0431031  78.6345993 103.9411150  74.2745211
  72.8940824 101.1523550  72.1800220  72.0244134 101.4457116  71.9082809
  73.1300305 101.7363995  72.9007484  67.9083148 106.4979491  60.3140885
  67.6629190 105.5941821  60.5121095  68.0779063 106.4996641  59.3720363
  75.5979858  97.3703167  69.6965640  76.1161802  98.1064194  69.3712129
  75.2434991  97.6767161  70.5312400  67.1778796 102.2307849  57.8127046
  66.4848041 102.3052204  57.1567082  66.9330548 101.4668192  58.3348563
  75.8492452  93.7903450  65.2166537  76.1294206  93.1226639  65.8426964
  76.6343059  93.9832545  64.7041201  79.7201311 102.2121084  68.9638112
  80.6718734 102.3119182  68.9850336  79.5504761 101.4199352  69.4736196
  77.7415690  99.2976667  69.1497513  77.1465622  99.5781680  68.4544002
  77.4565387  99.7870568  69.9214254  74.0372719 104.3023257  54.1207616
  74.9831824 104.1729465  54.1896034  73.6586964 103.5637918  54.5977044
  82.3483877 102.2238247  68.1238695  81.8322926 101.4396704  67.9368624
  83.2323825 101.8956964  68.2885214  80.0094604  95.9679263  64.0834508
  79.8119425  95.6594351  64.9677840  80.6194309  96.6940901  64.2132437
  72.2215636 102.2273233  54.0562501  71.3147092 101.9306346  54.1325215
  72.4991617 101.9303051  53.1896787  63.1393577 103.5479596  64.5061547
  62.8196361 102.6944905  64.2135921  62.5927005 103.7628174  65.2619515
  66.9173484 106.2642037  68.2231054  67.1359494 107.1959145  68.2419088
  67.3299258 105.9050012  69.0085858  73.8377702  96.7710123  60.2106742
  73.0278431  96.4257208  60.5861988  74.5262119  96.4617666  60.7994354
  75.7668250  95.8488169  61.8331039  76.3199289  96.2683623  62.4921062
  76.0038337  94.9223918  61.8753995  71.7901350 101.8375243  77.6133803
  71.6898077 102.7869600  77.5445894  71.5722892 101.5093482  76.7409873
  70.9914421  99.0860168  54.1974480  71.8533585  99.4115066  54.4570298
  71.1764765  98.2991664  53.6847546  63.0081837 107.1682508  66.4754669
  62.3145308 106.7536461  65.9624623  63.7554828 107.2103044  65.8788088
  79.1447058  97.9588695  61.3409703  78.5645727  98.6173499  60.9587756
  78.8782990  97.1366039  60.9297121  77.5950624  97.3593752  63.5431024
  78.0950402  97.4710287  62.7345342  78.2386232  97.0554805  64.1831832
  64.9218579 107.1000762  64.3520684  64.8989267 107.1988449  63.4002567
  65.2319216 107.9465912  64.6737850  67.5805957 109.1576917  68.4667298
  68.5349211 109.1260859  68.3997230  67.3818481 108.6967540  69.2817524
  68.1705339 107.7278033  71.0338096  68.9898228 108.2222111  71.0572933
  68.4442147 106.8110001  71.0055663  77.9271936 100.1188785  60.3966051
  77.0397791 100.4038436  60.1786246  78.3425925  99.9582548  59.5493328
  81.2786472 100.1435306  64.1120391  82.0546862 100.6331758  64.3845008
  80.5534606 100.5693360  64.5692260  83.7159030 100.8562925  65.1694331
  84.3103521 100.6158661  64.4587640  83.7885614 100.1370056  65.7967868
  77.9012959 105.6343321  60.6116342  77.8448161 106.0911872  59.7723974
  78.4541302 104.8734005  60.4339184  81.7117765 101.4233053  61.4366461
  81.4554699 101.0229688  62.2674669  81.0870633 102.1376847  61.3116600
  63.4240254 102.0616167  71.7330293  64.0699117 101.5515120  72.2217518
  63.2157405 102.7984848  72.3073718  71.9443864  96.3256211  57.4854189
  71.9322534  97.2698051  57.6422460  72.8367286  96.1426357  57.1913650
  75.7595984  92.9198988  61.7400126  74.9928379  92.3657474  61.8856808
  76.1706689  92.9920857  62.6014278  67.7637745  99.2083784  75.8305307
  68.6269206  98.8520588  76.0408632  67.1903155  98.8697678  76.5180712
  22.5723596   5.8696256  53.3613015  23.2102006   5.7503004  52.6576355
  22.4544439   6.8177100  53.4200967  19.3813302   5.8223685  53.2974540
  19.0431814   5.7064749  52.4095074  20.2503070   5.4214850  53.2775546
  15.2400118   7.6759161  49.2871431  14.6764983   7.5849098  48.5187718
  15.1252513   6.8559065  49.7673923  19.8633085   6.9758536  59.2560745
  19.8521726   6.5811335  58.3841249  20.0253725   6.2424609  59.8494517
  12.7864550   9.1710353  52.1255651  13.5785842   8.8301177  51.7101950
  13.0261200   9.2805328  53.0457804  20.8199677  11.3430129  44.5985895
  20.1687656  11.9284209  44.2119909  21.6144039  11.8736324  44.6580933
  14.7455304   8.4319266  44.9973030  15.5186180   7.8848253  44.8585906
  15.0980703   9.2963515  45.2087491  16.5840346   9.7595648  58.2039929
  16.2930212  10.6641279  58.0886595  17.2197331   9.8012176  58.9183999
  17.5096553   7.1372497  54.7941289  18.1060125   6.9128519  54.0798252
  17.5671525   6.3957242  55.3966737  22.1264864   3.5947710  50.4366223
  22.9127954   3.1767134  50.0856640  22.3903569   4.4993803  50.6047871
  22.2974942   9.0320561  45.1354880  21.6620775   9.1055187  45.8475784
  21.9672348   9.6214159  44.4573959  27.5273291   3.5322944  51.3399201
  28.2598463   2.9622160  51.5737031  26.7712647   3.1444544  51.7805707
  16.8017870   6.4940038  44.8315855  16.6854128   5.8184941  45.4996939
  16.9120130   6.0072412  44.0148008  19.1449411   5.9550185  48.5362544
  18.7807618   5.4280806  49.2475465  20.0016527   5.5648654  48.3629029
  21.5430231   9.4457064  55.1989723  21.2430954  10.3482102  55.0905530
  21.1981291   9.1789247  56.0510876  24.9427375   1.9639604  52.8787160
  24.0344252   1.8955012  52.5845921  24.8914971   2.4411549  53.7068986
  18.7644119   3.4397742  44.5170559  18.6443744   3.8854793  45.3556040
  18.0696707   3.7883060  43.9584097  16.5251011  16.2101384  48.1660690
  16.4475041  17.1609209  48.2449171  15.9212655  15.8647256  48.8235617
  19.0168241   3.3829249  60.8222057  18.2401575   3.9423170  60.8124922
  19.6558804   3.8686032  61.3436928  26.8089022   0.1656042  54.6565034
  26.1663402   0.4588575  54.0104829  26.3043950   0.0508963  55.4618231
  24.4629185   3.9119215  45.3450893  25.3747041   4.1446602  45.1698591
  23.9538832   4.4956260  44.7825972  17.2714613   6.1914703  60.3840024
  18.0129298   6.7299747  60.1074848  16.5651599   6.8180992  60.5411576
  22.7469953   8.3343843  58.9812186  23.1553309   7.8926254  58.2366818
  22.0247214   7.7596471  59.2346379  19.1001023   3.2716450  56.3545743
  19.9462218   3.6955864  56.4980392  19.0399661   2.6150074  57.0484306
  23.0698768   8.8945034  52.7364475  22.4407630   9.0590748  52.0340543
  22.6824430   9.3086643  53.5075439  26.9487999   9.8299472  50.0908839
  26.2639038  10.2098373  49.5405872  27.0331849  10.4394798  50.8240786
  22.2500468   0.9320818  58.0126916  22.0061400   1.6862879  57.4761192
  22.5260399   1.3106166  58.8474164  24.2038931   7.4759431  56.6904182
  24.4155826   8.1191191  56.0138563  24.1568679   6.6421747  56.2226112
  18.6226729   8.6319442  50.0014560  19.0865075   8.9107145  49.2119182
  18.3583528   7.7302887  49.8187651  15.5150810   8.1790923  52.9394323
  16.0852168   8.6078192  52.3011808  16.1058922   7.8973508  53.6378509
  17.5595615   4.7542594  46.8104125  18.2619659   5.2063638  47.2778051
  17.2276244   4.1126413  47.4384018  25.3184759  10.3531386  54.8626539
  26.1402203   9.9511573  54.5809221  25.3147162  10.2499620  55.8142655
  19.0841362   9.9015429  57.0187250  19.1485795  10.3635837  57.8545422
  18.3752286   9.2712794  57.1469560  33.4090752   6.6970135  51.2111511
  32.6554460   6.1277533  51.0555515  33.5438293   6.6632799  52.1582146
  18.7989380  11.5683537  46.8866230  18.6635055  12.4135073  47.3151078
  19.3399193  11.7702815  46.1232164  12.2518777   9.0858975  47.4594155
  12.7643298   9.8802225  47.6099720  12.9041490   8.3885265  47.3927757
  14.0613662  12.2024731  49.5416908  14.2380291  13.1242696  49.3537892
  14.8570496  11.8883150  49.9711288  20.4257856  12.1907103  61.0166572
  19.9821711  11.4043482  60.6987477  21.0875070  12.3786254  60.3510463
  15.1844978  13.7202905  55.5427251  15.7352403  13.5919968  54.7704245
  14.3456454  14.0197794  55.1922144  22.5239095  12.4709903  59.0447974
  22.5057570  13.2918784  58.5528243  23.4459015  12.3463979  59.2698115
  18.9812149   9.9854033  59.8871482  19.5140485   9.2242321  59.6570790
  18.4526230   9.6927685  60.6295636  22.1132126   5.0822710  43.9237559
  21.5978750   5.8527315  44.1625946  21.8409435   4.4087846  44.5470620
  27.0866400   7.8355065  45.8590732  26.3095843   7.4966224  45.4145894
  27.7657881   7.8407688  45.1845697  21.9018430   2.9549802  45.7497340
  21.5968565   3.2695951  46.6007483  22.8548872   3.0331222  45.7924673
  20.3464861   9.1140025  47.3990294  19.8186223   8.3792785  47.0863531
  19.8452364   9.8914702  47.1530262  25.3257707   7.3089046  52.5157340
  24.6681382   7.9988307  52.6037469  26.1298107   7.6985478  52.8591327
  24.1363166   5.6633419  50.5661282  24.6495048   6.2963410  51.0682992
  24.7864390   5.0634614  50.2004642  18.4917462   6.9320236  40.4025267
  17.5844523   6.7009489  40.6016416  18.9888494   6.1357855  40.5899249
  21.3985540  15.6417743  43.3221953  20.7247239  15.9449440  43.9306911
  21.7851362  16.4446823  42.9727410  20.6143997   3.1382874  52.8119623
  19.6966558   3.3597821  52.6541311  21.0304141   3.2129185  51.9531330
  21.3979045   4.5374290  47.9422303  22.1450864   5.0495687  47.6329425
  21.6670634   4.2158342  48.8026696  19.6705695   7.0332830  44.9249257
  18.7616914   6.7491863  45.0221727  19.7000779   7.4531909  44.0652564
  24.9024962  10.6439420  48.6940425  24.4487290   9.8030330  48.7505615
  24.2718929  11.2800818  49.0315205  23.8457882   1.5731406  49.9241092
  23.1080639   1.0608792  50.2551335  24.0984656   1.1331788  49.1124369
  23.3457902  12.4815917  49.6290243  23.6380876  13.0420974  48.9102608
  23.8556522  12.7744478  50.3843402  18.2190589   4.6461451  51.0259052
  18.2739199   3.6935287  50.9501529  17.4081791   4.8020890  51.5100351
  19.3681783   8.5741574  42.2637336  18.9301213   7.8577433  41.8042973
  20.1092224   8.8017689  41.7022427  18.3091527  13.2596268  50.7183696
  18.2667706  13.4857114  49.7892228  19.2254226  13.0259642  50.8669497
  21.7557161   3.7280335  57.6164325  22.1106548   3.9551808  58.4758791
  22.4029292   4.0598712  56.9941580  27.4854898   6.8498771  48.3213654
  27.3472796   7.0400367  47.3934843  27.1291116   7.6118154  48.7781705
  27.5124277   8.9175298  53.3324926  27.9460784   8.8250587  54.1807980
  28.2255858   8.8932799  52.6944942  16.4257328  10.1359297  50.5145659
  17.2197926   9.6409617  50.3128234  15.7149020   9.6077160  50.1513364
  21.2452172  12.5177392  54.8658026  21.2989194  13.0868329  55.6335742
  20.3766953  12.6879277  54.5012063  28.3739827   8.9598999  55.8657811
  28.5675717   9.8644809  56.1117086  28.2740445   8.5006418  56.6996396
  23.4354935   9.1105742  61.4398692  23.2840442   8.8816293  60.5228775
  23.4259615  10.0676343  61.4530037  20.2040272   6.6837654  56.4244958
  21.1332332   6.8348814  56.2513926  19.7831302   6.7721675  55.5693605
  19.0028604  10.7088319  54.1943496  18.8639689  10.3407103  55.0669434
  18.2143200  11.2235958  54.0227454  19.5976756  15.8097415  45.5369032
  19.7728511  15.3385458  46.3514655  18.9109544  16.4363181  45.7650293
  20.5533819  10.0869921  51.5832334  20.2183651  10.0470691  52.4789983
  20.0537764   9.4214637  51.1102744  23.4893010   7.4325956  41.8569393
  22.8722181   6.7072784  41.7602446  23.0209499   8.1935316  41.5136468
  17.1560363   5.2057511  56.5968594  17.8659982   4.5650703  56.5555213
  17.1129672   5.4570406  57.5194775  25.1447142  12.1424864  59.5175174
  25.0859688  11.4584084  58.8505757  25.5466660  12.8843854  59.0655800
  14.1637841  18.9586778  52.3108893  14.4034439  19.5905302  52.9887911
  13.3207037  18.6074818  52.5974252  25.1464549  10.1064448  57.7489153
  24.2591328   9.7690370  57.8715552  25.7163100   9.3747479  57.9857919
  18.6765703  14.7665900  54.7150396  18.6035874  15.5720872  55.2269701
  18.2343096  14.9657866  53.8898418  18.4655482  14.0037670  48.2253218
  17.6823004  14.5459351  48.3191443  19.1648228  14.5211650  48.6247459
  29.6281890   5.5172665  52.5105715  29.6171766   6.3997381  52.1399648
  28.7599269   5.1644216  52.3160252  21.1364386  14.6652734  56.8708555
  21.8492358  15.3000199  56.7984457  20.6454415  14.7616600  56.0548557
  22.8581913   8.5703987  48.4425847  21.9238192   8.6905450  48.2730551
  23.0358582   7.6676454  48.1785857  26.2454465   4.4121306  48.9775881
  26.7114917   5.2449298  48.9036184  26.6961965   3.9466288  49.6821139
  16.1876300  12.4147178  57.6914126  16.8885759  13.0483661  57.8443520
  15.7171415  12.7561909  56.9309765  24.3130696  10.7565128  45.9762033
  24.5890540  10.6421722  46.8855907  23.4435194  10.3582613  45.9374206
  23.9877586   4.9691785  55.5166676  23.3349036   5.2167693  54.8619129
  24.3657966   4.1555924  55.1829154  20.9484760  15.0051479  49.6194847
  21.1307154  14.1873134  50.0822599  21.7717746  15.2219171  49.1819737
  21.2826925  13.9319664  46.8809895  21.8114692  13.4212118  46.2680057
  21.5455145  13.6162194  47.7455428  20.0365159   5.7111596  62.0032713
  19.3605796   5.6105726  62.6735089  20.8592793   5.5550810  62.4668711
  11.7844018  11.9483533  54.6245229  12.3697455  11.2027221  54.7573133
  11.5868856  12.2587490  55.5081893  14.6382673  14.9834780  49.6407671
  13.9693048  15.4680908  49.1571711  14.4995543  15.2304001  50.5551050
  18.7787942  17.0178524  56.2390329  19.3306250  17.1810145  57.0039415
  19.1194135  17.6082962  55.5670354  23.6298816  11.8439781  62.0938984
  24.1738720  12.4569740  61.5993939  23.0485661  12.4019360  62.6105997
  21.9156329  14.9660499  53.2254012  21.7907468  14.1650239  52.7164957
  22.5735420  15.4606693  52.7367982  23.9791237  12.7669519  54.8533562
  23.0321573  12.6474871  54.7811888  24.3274010  11.8792018  54.9359823
  20.9837671  12.5622236  51.0537914  20.8362633  11.6338943  51.2345484
  21.8091164  12.5842326  50.5694989  24.5871792  13.3850794  52.1402787
  25.5118340  13.1793656  52.0027238  24.4187096  13.1367196  53.0492128
  24.3767109  13.9036462  47.4964878  24.5503986  13.3382884  46.7438731
  24.8696000  14.7037357  47.3144368  30.2306500   6.6672885  49.1155178
  30.6737646   5.9180210  48.7174301  29.3533010   6.6583021  48.7328910
  25.3642281  13.2203226  44.5961776  26.0593186  13.8409919  44.8149091
  25.7065431  12.3698578  44.8714154  27.2633704  10.6702932  46.1249107
  27.7885028  11.0090205  45.3998427  27.1756057   9.7349947  45.9412242
  18.9253753  14.5837005  58.2538984  19.2340879  14.3386152  59.1261683
  19.7229235  14.7883644  57.7657854  18.9474365  16.7374915  50.4844360
  18.5079355  16.2451294  51.1777217  19.6982482  16.1947883  50.2436436
  11.4266704  12.9286456  50.4868988  12.2524724  12.6290228  50.1067632
  11.0760756  12.1594078  50.9358777  16.3948237  12.2812924  52.5566662
  15.7728246  11.6183629  52.2568890  17.0653104  12.3074056  51.8740310
   9.6275309  10.8472782  51.4457922   8.7907217  10.4194957  51.2641923
   9.5998954  11.0405226  52.3828713  26.9527610  11.3035835  61.4300305
  26.1623154  11.2859974  60.8904805  26.7160965  11.8424129  62.1849342
  27.0725485   8.1528302  58.7433034  27.1223490   7.9878309  59.6848556
  26.9639409   7.2855561  58.3530914  15.9561744  10.8316848  46.0325123
  16.1049864  11.5152312  45.3791795  16.7628188  10.8121938  46.5474578
  24.3629248   4.1359230  60.0592340  25.2639111   3.9965695  59.7676338
  24.4377222   4.3013685  60.9990518  28.5743682  10.5725243  58.9875055
  28.2828491  10.9355224  59.8238516  27.9615814   9.8592252  58.8088387
  29.7739365   8.1378123  51.5077625  30.6086256   8.5767927  51.6715186
  29.9098493   7.6616776  50.6885871  26.8230870   5.6957858  57.4555113
  27.2984992   5.8885504  56.6473965  25.8996436   5.7517044  57.2098497
  19.4557150  13.3264978  43.5036870  18.8831117  13.9455165  43.0507342
  20.0289943  13.8764340  44.0376792  25.5232539   2.5723618  55.6883419
  26.4749962   2.6721716  55.7095643  25.3535990   1.7801887  56.1981503
  23.5446919  -0.3420799  55.8742820  22.9496851  -0.0615786  55.1789308
  23.2596616   0.1473102  56.6459561  22.6754409  13.6102128  44.6345452
  23.6085083  13.5447690  44.8378328  22.5877622  14.4458395  44.1759985
  25.3042426  12.9267998  41.5949400  25.2256058  12.5927862  42.4885158
  26.1252093  13.4189766  41.5940872  28.0020617   5.7929738  54.8025718
  27.9696937   4.8545738  54.9885402  28.6121241   5.8713774  54.0691543
  19.8403948   4.6625791  40.8452922  20.7863053   4.5331999  40.9141340
  19.4618193   3.9240453  41.3222351  28.1515106   2.5840781  54.8484002
  27.6354154   1.7999238  54.6613930  29.0355054   2.2559498  55.0130521
  33.8197167   6.8545745  53.9431755  34.5500556   6.5931033  54.5039459
  33.2104113   6.1174467  53.9833823  31.9012464   4.9953607  54.5406206
  31.1745628   4.8609572  53.9322698  31.4859751   5.3030436  55.3462924
  19.7242641   8.7143537  62.3053579  20.6445650   8.8922136  62.4993626
  19.6892224   7.7699582  62.1533279  17.4563849   5.6274916  63.1544171
  16.9730930   6.4275276  63.3608060  17.5424788   5.6382861  62.2011615
  13.3837186   9.5179451  55.1912605  14.3380440   9.4863393  55.1242537
  13.1849710   9.0570075  56.0062831  13.9736568   8.0880567  57.7583403
  14.7929457   8.5824646  57.7818240  14.2473376   7.1712535  57.7300970
  23.7303164   0.4791319  47.1211358  22.8429019   0.7640970  46.9031553
  24.1457153   0.3185083  46.2738635  27.0817701   0.5037840  50.8365697
  27.8578091   0.9934293  51.1090314  26.3565835   0.9295894  51.2937567
  29.5190259   1.2165459  51.8939638  30.1134750   0.9761195  51.1832946
  29.5916843   0.4972590  52.5213174  11.7387415  15.0599070  52.2082803
  11.6041883  14.2999471  51.6420801  11.3219477  15.7839970  51.7411592
  22.8746378  10.2435994  41.2159378  23.5782228  10.4485996  41.8317034
  22.1509027  10.8112756  41.4808462  23.7044188   5.9945855  47.3361648
  23.6479390   6.4514407  46.4969281  24.2572531   5.2336540  47.1584491
  27.5148994   1.7835587  48.1611768  27.2585928   1.3832223  48.9919975
  26.8901862   2.4979381  48.0361907  31.8261332   4.5231660  50.6683059
  31.2660890   4.5924850  51.4414621  31.2204835   4.3472645  49.9482555
  14.8956541  15.9568387  52.4201245  14.7788925  16.9013820  52.3179936
  14.0748987  15.6541949  52.8087045  24.7833075  10.6818523  43.2657838
  25.6178679  10.2499722  43.0835313  24.6217418  10.5100537  44.1934733
  24.4378967   7.1850636  44.6314177  24.3827771   7.0194908  43.6902622
  23.8125023   7.8926669  44.7876367  21.7524875   9.4899548  63.9567740
  22.6216034   9.6640201  63.5954375  21.2731626  10.3093965  63.8343470
  15.9211055  16.6096649  55.6357174  16.8238302  16.6420259  55.9523669
  15.6948425  15.6797100  55.6503510  17.6764657  15.3627636  52.2967253
  16.7260288  15.3629497  52.1831625  17.9797143  14.6160370  51.7803287
  33.4117350  21.1988174  53.3613015  34.0495760  21.0794922  52.6576355
  33.2938193  22.1469018  53.4200967  30.2207057  21.1515602  53.2974540
  29.8825568  21.0356667  52.4095074  31.0896825  20.7506767  53.2775546
  26.0793872  23.0051079  49.2871431  25.5158737  22.9141016  48.5187718
  25.9646267  22.1850983  49.7673923  30.7026840  22.3050454  59.2560745
  30.6915480  21.9103252  58.3841249  30.8647479  21.5716527  59.8494517
  23.6258304  24.5002270  52.1255651  24.4179596  24.1593095  51.7101950
  23.8654954  24.6097245  53.0457804  31.6593431  26.6722046  44.5985895
  31.0081411  27.2576127  44.2119909  32.4537794  27.2028241  44.6580933
  25.5849058  23.7611184  44.9973030  26.3579934  23.2140171  44.8585906
  25.9374457  24.6255433  45.2087491  27.4234101  25.0887566  58.2039929
  27.1323967  25.9933197  58.0886595  28.0591085  25.1304093  58.9183999
  28.3490308  22.4664414  54.7941289  28.9453880  22.2420437  54.0798252
  28.4065279  21.7249160  55.3966737  27.9215336  19.9203850  42.6291480
  28.1740857  19.3985371  41.8674943  26.9839895  19.7569995  42.7318163
  32.9658619  18.9239628  50.4366223  33.7521708  18.5059051  50.0856640
  33.2297323  19.8285720  50.6047871  33.1368696  24.3612478  45.1354880
  32.5014529  24.4347105  45.8475784  32.8066103  24.9506077  44.4573959
  38.3667046  18.8614861  51.3399201  39.0992218  18.2914078  51.5737031
  37.6106402  18.4736462  51.7805707  27.6411625  21.8231956  44.8315855
  27.5247883  21.1476859  45.4996939  27.7513885  21.3364330  44.0148008
  29.9843166  21.2842103  48.5362544  29.6201373  20.7572724  49.2475465
  30.8410282  20.8940572  48.3629029  35.8892466  12.5736435  55.7993810
  35.5575791  13.4431846  55.5755025  35.2938080  12.2572719  56.4787840
  29.6248653  16.3132002  43.5323892  29.7923055  17.1812239  43.8994363
  29.4345822  16.4759284  42.6085182  32.3823986  24.7748981  55.1989723
  32.0824709  25.6774020  55.0905530  32.0375045  24.5081165  56.0510876
  25.8336467  21.2262778  51.2326427  24.9086964  21.0938992  51.4404119
  26.0820881  22.0056997  51.7296370  35.7821130  17.2931522  52.8787160
  34.8738007  17.2246930  52.5845921  35.7308725  17.7703466  53.7068986
  29.6037874  18.7689660  44.5170559  29.4837499  19.2146711  45.3556040
  28.9090462  19.1174978  43.9584097  23.1945278  20.8696052  52.0670216
  23.3237660  21.1230531  52.9809628  22.5142730  21.4623760  51.7474871
  27.3644766  31.5393302  48.1660690  27.2868795  32.4901127  48.2449171
  26.7606409  31.1939174  48.8235617  29.8561995  18.7121167  60.8222057
  29.0795329  19.2715087  60.8124922  30.4952558  19.1977950  61.3436928
  37.6482776  15.4947960  54.6565034  37.0057156  15.7880493  54.0104829
  37.1437705  15.3800880  55.4618231  35.3022940  19.2411133  45.3450893
  36.2140796  19.4738520  45.1698591  34.7932587  19.8248177  44.7825972
  28.1108368  21.5206620  60.3840024  28.8523052  22.0591664  60.1074848
  27.4045353  22.1472909  60.5411576  33.5863707  23.6635761  58.9812186
  33.9947063  23.2218171  58.2366818  32.8640969  23.0888388  59.2346379
  29.9394777  18.6008368  56.3545743  30.7855973  19.0247781  56.4980392
  29.8793415  17.9441992  57.0484306  33.9092522  24.2236952  52.7364475
  33.2801384  24.3882666  52.0340543  33.5218184  24.6378561  53.5075439
  37.7881754  25.1591389  50.0908839  37.1032792  25.5390291  49.5405872
  37.8725603  25.7686716  50.8240786  33.0894223  16.2612736  58.0126916
  32.8455155  17.0154797  57.4761192  33.3654153  16.6398084  58.8474164
  35.0432686  22.8051348  56.6904182  35.2549581  23.4483108  56.0138563
  34.9962434  21.9713665  56.2226112  32.6458914  15.4169169  53.5940754
  31.7843394  15.7150423  53.8857492  32.6721349  15.6339568  52.6621787
  29.4620484  23.9611360  50.0014560  29.9258829  24.2399063  49.2119182
  29.1977282  23.0594804  49.8187651  26.3544565  23.5082841  52.9394323
  26.9245922  23.9370110  52.3011808  26.9452677  23.2265426  53.6378509
  28.3989370  20.0834512  46.8104125  29.1013413  20.5355556  47.2778051
  28.0669998  19.4418331  47.4384018  26.8469731  18.6746269  61.1855334
  26.2168392  19.3562549  61.4190731  26.7405819  18.5629350  60.2408473
  22.1414704  18.3418065  52.1121259  21.3513758  18.5975593  51.6361369
  22.6325951  19.1566403  52.2173299  36.1578513  25.6823304  54.8626539
  36.9795957  25.2803491  54.5809221  36.1540916  25.5791538  55.8142655
  24.0929449  18.7062644  49.0704735  23.2960613  18.8181338  49.5888231
  23.8655041  19.0449296  48.2045626  29.9235117  25.2307347  57.0187250
  29.9879549  25.6927754  57.8545422  29.2146041  24.6004712  57.1469560
  20.4252407  18.5948555  54.5436249  20.6760445  19.4795565  54.8093825
  20.9611955  18.4153157  53.7711341  44.2484507  22.0262052  51.2111511
  43.4948215  21.4569450  51.0555515  44.3832048  21.9924717  52.1582146
  29.6383135  26.8975455  46.8866230  29.5028809  27.7426990  47.3151078
  30.1792947  27.0994732  46.1232164  26.1250474  12.9767034  63.5480585
  25.7317420  12.4233233  64.2228230  26.9416615  13.2877613  63.9387103
  23.0912532  24.4150893  47.4594155  23.6037053  25.2094143  47.6099720
  23.7435245  23.7177183  47.3927757  24.9007417  27.5316649  49.5416908
  25.0774045  28.4534614  49.3537892  25.6964250  27.2175068  49.9711288
  29.0418435  14.3924914  61.1400842  29.7828149  14.9932067  61.0605304
  29.2736358  13.6502551  60.5818885  24.1859773  19.5781281  59.4179072
  24.0713288  18.6766538  59.7186171  23.3304291  19.8244978  59.0663888
  31.2651611  27.5199021  61.0166572  30.8215465  26.7335400  60.6987477
  31.9268825  27.7078172  60.3510463  26.0238732  29.0494823  55.5427251
  26.5746157  28.9211886  54.7704245  25.1850208  29.3489712  55.1922144
  33.3632849  27.8001821  59.0447974  33.3451324  28.6210702  58.5528243
  34.2852769  27.6755896  59.2698115  29.8205903  25.3145951  59.8871482
  30.3534240  24.5534239  59.6570790  29.2919984  25.0219602  60.6295636
  32.9875598  10.4206016  55.4165124  32.6439868  11.3107658  55.3404234
  33.3554561  10.2307674  54.5534709  21.0561449  22.7439547  48.2353726
  21.8936671  23.1536555  48.0187434  21.2339716  21.8038989  48.2053920
  32.9525881  20.4114628  43.9237559  32.4372504  21.1819232  44.1625946
  32.6803189  19.7379764  44.5470620  30.5372992  15.2564328  48.9822797
  29.6814588  14.8671179  48.8028436  30.9499944  15.3356289  48.1222583
  32.0672139  12.7910672  53.3814357  31.5636934  12.7540807  52.5682162
  32.3602745  13.7003414  53.4411014  28.3115024  12.8749401  52.3880539
  29.1768021  12.6792210  52.0286428  28.3792533  12.6459753  53.3149895
  37.9260155  23.1646982  45.8590732  37.1489598  22.8258142  45.4145894
  38.6051636  23.1699605  45.1845697  32.7412184  18.2841720  45.7497340
  32.4362320  18.5987869  46.6007483  33.6942626  18.3623140  45.7924673
  31.1858616  24.4431943  47.3990294  30.6579977  23.7084703  47.0863531
  30.6846119  25.2206619  47.1530262  36.1651462  22.6380964  52.5157340
  35.5075136  23.3280225  52.6037469  36.9691861  23.0277395  52.8591327
  25.9177343  15.1051609  49.7596905  26.4921095  14.8826791  49.0270098
  26.5048326  15.1740304  50.5125507  34.9756921  20.9925336  50.5661282
  35.4888802  21.6255328  51.0682992  35.6258145  20.3926532  50.2004642
  26.2446931  17.1356070  43.7792791  25.4084243  17.4730757  44.1002065
  26.1051700  17.0005050  42.8419928  28.2200011  11.9792858  48.4871975
  27.5664424  11.6641875  47.8628590  28.1780485  11.3568599  49.2131798
  29.3311216  22.2612153  40.4025267  28.4238278  22.0301407  40.6016416
  29.8282248  21.4649773  40.5899249  32.2379295  30.9709660  43.3221953
  31.5640994  31.2741357  43.9306911  32.6245117  31.7738741  42.9727410
  31.4537752  18.4674792  52.8119623  30.5360313  18.6889739  52.6541311
  31.8697895  18.5421102  51.9531330  32.2372799  19.8666207  47.9422303
  32.9844618  20.3787605  47.6329425  32.5064389  19.5450260  48.8026696
  30.5099449  22.3624748  44.9249257  29.6010669  22.0783781  45.0221727
  30.5394533  22.7823827  44.0652564  35.7418717  25.9731338  48.6940425
  35.2881044  25.1322248  48.7505615  35.1112684  26.6092736  49.0315205
  34.6851636  16.9023324  49.9241092  33.9474393  16.3900710  50.2551335
  34.9378410  16.4623705  49.1124369  34.1851656  27.8107834  49.6290243
  34.4774631  28.3712891  48.9102608  34.6950277  28.1036395  50.3843402
  34.7863264   9.6799576  50.5182861  35.0922141   8.8196939  50.2308776
  35.5115869  10.2717196  50.3181855  21.0787620  20.0830262  48.9064459
  20.8812020  19.4899623  48.1815526  20.5234284  19.7782472  49.6240398
  29.0584344  19.9753369  51.0259052  29.1132953  19.0227205  50.9501529
  28.2475546  20.1312808  51.5100351  30.2075537  23.9033492  42.2637336
  29.7694967  23.1869351  41.8042973  30.9485978  24.1309607  41.7022427
  26.9976703  18.5930428  48.7849431  26.1844569  18.8924599  49.1914623
  27.4935698  18.1986117  49.5023914  29.1485281  28.5888185  50.7183696
  29.1061460  28.8149032  49.7892228  30.0647980  28.3551560  50.8669497
  32.5950915  19.0572253  57.6164325  32.9500303  19.2843726  58.4758791
  33.2423046  19.3890630  56.9941580  38.3248652  22.1790689  48.3213654
  38.1866551  22.3692285  47.3934843  37.9684871  22.9410072  48.7781705
  26.4890778  16.1648784  54.4010666  27.1290158  16.0237543  53.7033630
  25.6568309  15.8783297  54.0249268  38.3518032  24.2467216  53.3324926
  38.7854538  24.1542505  54.1807980  39.0649612  24.2224716  52.6944942
  27.2651082  25.4651214  50.5145659  28.0591681  24.9701535  50.3128234
  26.5542774  24.9369078  50.1513364  32.0845927  27.8469310  54.8658026
  32.1382949  28.4160246  55.6335742  31.2160708  28.0171195  54.5012063
  23.5733846  19.6094296  46.5905411  22.6431434  19.5478752  46.8075374
  23.6691318  19.0870249  45.7942053  23.4919395  16.1349109  49.1783653
  23.7526212  17.0494442  49.0692814  24.3136567  15.6673552  49.3280266
  24.9644320  17.5486866  56.3482478  25.6367373  17.3404228  55.6995127
  24.1374106  17.3508952  55.9087710  39.2133581  24.2890917  55.8657811
  39.4069471  25.1936727  56.1117086  39.1134199  23.8298336  56.6996396
  30.8669892  14.1748807  58.3648138  30.2197807  14.8738757  58.2712615
  31.6370907  14.6084951  58.7324387  34.2748690  24.4397659  61.4398692
  34.1234196  24.2108211  60.5228775  34.2653369  25.3968261  61.4530037
  31.0434026  22.0129572  56.4244958  31.9726086  22.1640732  56.2513926
  30.6225056  22.1013593  55.5693605  29.8422358  26.0380236  54.1943496
  29.7033444  25.6699021  55.0669434  29.0536954  26.5527876  54.0227454
  30.4370510  31.1389333  45.5369032  30.6122266  30.6677376  46.3514655
  29.7503298  31.7655099  45.7650293  31.3927573  25.4161839  51.5832334
  31.0577406  25.3762609  52.4789983  30.8931519  24.7506555  51.1102744
  25.3671817  20.8229469  57.1084915  25.2291615  20.0909708  57.7096454
  26.2776741  20.7338369  56.8269103  34.3286765  22.7617873  41.8569393
  33.7115936  22.0364702  41.7602446  33.8603253  23.5227234  41.5136468
  27.9954118  20.5349428  56.5968594  28.7053736  19.8942621  56.5555213
  27.9523426  20.7862323  57.5194775  35.9840897  27.4716782  59.5175174
  35.9253443  26.7876002  58.8505757  36.3860415  28.2135772  59.0655800
  26.7083052  17.5214646  58.4164234  26.1720409  17.0705385  59.0685830
  26.1199760  17.6560555  57.6734698  25.0031595  34.2878696  52.3108893
  25.2428194  34.9197220  52.9887911  24.1600792  33.9366736  52.5974252
  26.1185311  16.9803298  40.9790698  25.2414777  16.8592099  40.6152944
  26.5943064  16.1889376  40.7269586  35.9858304  25.4356366  57.7489153
  35.0985083  25.0982288  57.8715552  36.5556855  24.7039397  57.9857919
  17.6387451  21.7680457  51.0732205  18.3258491  21.4542188  50.4853220
  17.4835580  22.6721822  50.7999456  22.4422173  16.6570654  55.5017228
  22.3580362  16.0496324  54.7667638  21.6204879  17.1479672  55.5026725
  29.5159457  30.0957818  54.7150396  29.4429629  30.9012790  55.2269701
  29.0736850  30.2949784  53.8898418  29.3049237  29.3329588  48.2253218
  28.5216759  29.8751268  48.3191443  30.0041982  29.8503568  48.6247459
  32.6145887  15.1424218  50.8687423  33.1114587  14.3894180  50.5488494
  31.8432868  15.1788534  50.3030633  40.4675644  20.8464583  52.5105715
  40.4565521  21.7289299  52.1399648  39.5993024  20.4936134  52.3160252
  31.9758141  29.9944652  56.8708555  32.6886113  30.6292117  56.7984457
  31.4848169  30.0908518  56.0548557  33.6975668  23.8995905  48.4425847
  32.7631946  24.0197367  48.2730551  33.8752336  22.9968372  48.1785857
  29.1980856  17.2841601  50.5959108  28.8278643  16.7312641  51.2840014
  29.6939948  16.6799734  50.0434108  37.0848219  19.7413224  48.9775881
  37.5508671  20.5741216  48.9036184  37.5355720  19.2758206  49.6821139
  27.0270054  27.7439096  57.6914126  27.7279514  28.3775579  57.8443520
  26.5565169  28.0853827  56.9309765  35.1524450  26.0857045  45.9762033
  35.4284294  25.9713640  46.8855907  34.2828949  25.6874530  45.9374206
  35.0564882  12.1093811  53.0166782  34.1427962  12.3398038  53.1848989
  35.4857983  12.1932255  53.8680815  34.8271340  20.2983703  55.5166676
  34.1742790  20.5459610  54.8619129  35.2051720  19.4847841  55.1829154
  31.7878514  30.3343396  49.6194847  31.9700909  29.5165052  50.0822599
  32.6111500  30.5511088  49.1819737  32.1220680  29.2611581  46.8809895
  32.6508446  28.7504036  46.2680057  32.3848899  28.9454112  47.7455428
  30.8758913  21.0403514  62.0032713  30.1999550  20.9397643  62.6735089
  31.6986547  20.8842728  62.4668711  22.6237772  27.2775451  54.6245229
  23.2091209  26.5319139  54.7573133  22.4262611  27.5879407  55.5081893
  25.4776428  30.3126698  49.6407671  24.8086803  30.7972826  49.1571711
  25.3389297  30.5595918  50.5551050  17.2155427  19.8481051  53.3449672
  17.2539527  19.3144642  54.1386790  16.7095720  19.3216256  52.7260649
  29.6181696  32.3470442  56.2390329  30.1700004  32.5102063  57.0039415
  29.9587890  32.9374879  55.5670354  24.5946189  14.6945591  56.8412214
  24.6587516  15.5560422  56.4289612  24.5313310  14.0819593  56.1084573
  24.0698462  16.7668724  60.4885248  24.6970501  16.3845801  61.1022773
  23.2126381  16.5482926  60.8540941  34.4692570  27.1731699  62.0938984
  35.0132474  27.7861657  61.5993939  33.8879415  27.7311277  62.6105997
  20.8464005  18.5745153  46.4203603  21.1417446  17.6655831  46.3670657
  19.9452040  18.5532892  46.0984606  32.7550083  30.2952417  53.2254012
  32.6301223  29.4942157  52.7164957  33.4129175  30.7898610  52.7367982
  24.3758252  16.6501150  52.4031152  23.6544837  17.2637117  52.2638625
  25.1651507  17.1858914  52.3247798  34.8184992  28.0961437  54.8533562
  33.8715327  27.9766788  54.7811888  35.1667765  27.2083935  54.9359823
  27.1784565  13.9855576  58.6771804  27.7018967  14.2317873  59.4398113
  26.9596898  14.8175611  58.2574941  22.5751846  16.2559251  46.5442928
  22.2464552  15.3756630  46.3618034  22.9291217  16.2006919  47.4319318
  31.8231425  27.8914153  51.0537914  31.6756388  26.9630861  51.2345484
  32.6484919  27.9134244  50.5694989  25.6893669  16.5432220  46.9118406
  26.0289742  17.0718142  46.1897014  26.1365790  16.8812627  47.6876973
  35.4265547  28.7142712  52.1402787  36.3512094  28.5085573  52.0027238
  35.2580850  28.4659113  53.0492128  28.3837110  14.9269271  56.3621474
  28.0433931  14.1277084  56.7642154  27.6776116  15.2270982  55.7898307
  29.0353582  12.0118584  54.8148797  29.8579651  11.5379062  54.6927687
  29.2791646  12.7909067  55.3147483  27.6761817  15.0406842  45.1111699
  28.3970179  15.4188095  44.6075416  27.0527121  15.7595719  45.2146677
  31.8192939  15.7451991  46.0470031  32.0356554  16.6276629  45.7458859
  31.3387007  15.3538204  45.3175673  26.5592161  18.7037704  52.6240776
  26.4136742  19.0178007  53.5165057  26.0817364  19.3222605  52.0711674
  28.4188544  15.6940252  52.6721665  28.4050112  14.7981346  52.3353963
  29.1360972  15.7010916  53.3059951  30.2714674  16.1277592  54.7174793
  30.0132452  17.0494663  54.7159123  29.7399715  15.7308027  55.4075257
  35.2160863  29.2328380  47.4964878  35.3897741  28.6674802  46.7438731
  35.7089754  30.0329274  47.3144368  21.0337823  21.2443049  55.5628437
  20.4891291  22.0202857  55.6948711  21.9117173  21.5913853  55.4047558
  27.8225440  14.5754633  47.9409235  27.9441351  13.6471279  48.1400123
  27.5327482  14.5893318  47.0287551  30.6916630  12.2609543  51.0775955
  30.7138327  12.3248876  50.1227935  31.1084689  11.4214052  51.2716461
  41.0700254  21.9964803  49.1155178  41.5131400  21.2472128  48.7174301
  40.1926765  21.9874939  48.7328910  36.2036036  28.5495144  44.5961776
  36.8986940  29.1701837  44.8149091  36.5459186  27.6990495  44.8714154
  21.8203845  20.3712945  58.4558594  21.0785581  20.5195580  59.0423224
  21.4996589  20.6321211  57.5925343  38.1027459  25.9994849  46.1249107
  38.6278783  26.3382122  45.3998427  38.0149811  25.0641865  45.9412242
  29.7647507  29.9128923  58.2538984  30.0734634  29.6678070  59.1261683
  30.5622989  30.1175562  57.7657854  29.7868120  32.0666833  50.4844360
  29.3473110  31.5743211  51.1777217  30.5376236  31.5239800  50.2436436
  22.2660459  28.2578374  50.4868988  23.0918478  27.9582146  50.1067632
  21.9154510  27.4885996  50.9358777  27.2341992  27.6104842  52.5566662
  26.6122001  26.9475547  52.2568890  27.9046859  27.6365974  51.8740310
  20.4669064  26.1764700  51.4457922  19.6300972  25.7486874  51.2641923
  20.4392709  26.3697143  52.3828713  27.3066519  16.0886630  62.1499168
  27.3554675  16.9648753  61.7676938  27.8489033  15.5464023  61.5770811
  37.7921365  26.6327753  61.4300305  37.0016909  26.6151892  60.8904805
  37.5554719  27.1716047  62.1849342  37.9119240  23.4820220  58.7433034
  37.9617245  23.3170227  59.6848556  37.8033163  22.6147479  58.3530914
  26.7955499  26.1608765  46.0325123  26.9443619  26.8444230  45.3791795
  27.6021942  26.1413855  46.5474578  35.2023002  19.4651148  60.0592340
  36.1032865  19.3257612  59.7676338  35.2770977  19.6305602  60.9990518
  29.5365808  16.8418002  58.9045527  28.6669117  17.1351568  58.6328115
  29.7725288  17.4258447  59.6252790  39.4137437  25.9017161  58.9875055
  39.1222245  26.2647142  59.8238516  38.8009568  25.1884169  58.8088387
  40.6133119  23.4670041  51.5077625  41.4480010  23.9059845  51.6715186
  40.7492248  22.9908694  50.6885871  37.6624625  21.0249776  57.4555113
  38.1378747  21.2177422  56.6473965  36.7390190  21.0808961  57.2098497
  24.5508132  22.1873943  47.0386191  24.3054174  21.2836273  47.2366402
  24.7204046  22.1891093  46.0965669  32.2404841  13.0597619  56.4210947
  32.7586785  13.7958646  56.0957436  31.8859974  13.3661613  57.2557706
  23.8203779  17.9202300  44.5372353  23.1273024  17.9946655  43.8812389
  23.5755531  17.1562644  45.0593870  32.4917436   9.4797902  51.9411844
  32.7719189   8.8121091  52.5672270  33.2768043   9.6726997  51.4286507
  30.2950904  28.6556896  43.5036870  29.7224871  29.2747083  43.0507342
  30.8683698  29.2056257  44.0376792  36.3626294  17.9015536  55.6883419
  37.3143717  18.0013633  55.7095643  36.1929744  17.1093804  56.1981503
  34.3840673  14.9871119  55.8742820  33.7890606  15.2676132  55.1789308
  34.0990370  15.4765020  56.6459561  33.5148164  28.9394046  44.6345452
  34.4478837  28.8739607  44.8378328  33.4271377  29.7750313  44.1759985
  36.1436181  28.2559916  41.5949400  36.0649812  27.9219780  42.4885158
  36.9645847  28.7481684  41.5940872  38.8414372  21.1221655  54.8025718
  38.8090692  20.1837656  54.9885402  39.4514995  21.2005692  54.0691543
  30.6797703  19.9917708  40.8452922  31.6256807  19.8623917  40.9141340
  30.3011948  19.2532370  41.3222351  38.9908860  17.9132699  54.8484002
  38.4747909  17.1291155  54.6613930  39.8748809  17.5851415  55.0130521
  36.6519587  11.6573714  50.8079814  36.4544408  11.3488803  51.6923146
  37.2619293  12.3835353  50.9377744  44.6590922  22.1837662  53.9431755
  45.3894310  21.9222950  54.5039459  44.0497867  21.4466384  53.9833823
  42.7406219  20.3245525  54.5406206  42.0139382  20.1901490  53.9322698
  42.3253506  20.6322353  55.3462924  30.5636395  24.0435455  62.3053579
  31.4839405  24.2214054  62.4993626  30.5285978  23.0991500  62.1533279
  28.8640620  17.9167685  40.7807808  27.9572075  17.6200798  40.8570521
  29.1416601  17.6197503  39.9142094  19.7818560  19.2374048  51.2306854
  19.4621344  18.3839356  50.9381228  19.2351988  19.4522626  51.9864821
  23.5598468  21.9536489  54.9476361  23.7784477  22.8853597  54.9664394
  23.9724242  21.5944464  55.7331164  30.4802685  12.4604575  46.9352049
  29.6703414  12.1151659  47.3107295  31.1687102  12.1512118  47.5239661
  32.4093234  11.5382621  48.5576346  32.9624272  11.9578075  49.2166369
  32.6463320  10.6118369  48.5999302  28.4326333  17.5269695  64.3379110
  28.3323060  18.4764052  64.2691201  28.2147875  17.1987934  63.4655180
  27.6339404  14.7754620  40.9219787  28.4958568  15.1009518  41.1815604
  27.8189749  13.9886116  40.4092853  19.6506820  22.8576960  53.1999976
  18.9570292  22.4430912  52.6869930  20.3979811  22.8997496  52.6033395
  35.7872041  13.6483146  48.0655010  35.2070710  14.3067951  47.6833062
  35.5207974  12.8260491  47.6542427  34.2375607  13.0488204  50.2676330
  34.7375386  13.1604739  49.4590649  34.8811215  12.7449257  50.9077139
  28.2957603  20.9566834  63.1544171  27.8124685  21.7567194  63.3608060
  28.3818542  20.9674779  62.2011615  21.5643563  22.7895213  51.0765991
  21.5414251  22.8882901  50.1247874  21.8744199  23.6360364  51.3983157
  24.2230941  24.8471368  55.1912605  25.1774194  24.8155311  55.1242537
  24.0243464  24.3861992  56.0062831  24.8130323  23.4172485  57.7583403
  25.6323212  23.9116563  57.7818240  25.0867130  22.5004453  57.7300970
  34.5696919  15.8083237  47.1211358  33.6822774  16.0932887  46.9031553
  34.9850908  15.6477000  46.2738635  37.9211455  15.8329758  50.8365697
  38.6971845  16.3226210  51.1090314  37.1959589  16.2587812  51.2937567
  40.3584014  16.5457377  51.8939638  40.9528504  16.3053113  51.1832946
  40.4310597  15.8264508  52.5213174  22.5781169  30.3890988  52.2082803
  22.4435637  29.6291389  51.6420801  22.1613232  31.1131888  51.7411592
  33.7140132  25.5727912  41.2159378  34.4175982  25.7777914  41.8317034
  32.9902781  26.1404673  41.4808462  34.5437943  21.3237773  47.3361648
  34.4873144  21.7806324  46.4969281  35.0966285  20.5628457  47.1584491
  38.3542749  17.1127505  48.1611768  38.0979683  16.7124140  48.9919975
  37.7295617  17.8271299  48.0361907  42.6655086  19.8523578  50.6683059
  42.1054644  19.9216767  51.4414621  42.0598590  19.6764563  49.9482555
  25.7350295  31.2860305  52.4201245  25.6182679  32.2305737  52.3179936
  24.9142741  30.9833867  52.8087045  35.6226830  26.0110441  43.2657838
  36.4572434  25.5791639  43.0835313  35.4611173  25.8392454  44.1934733
  35.2772722  22.5142554  44.6314177  35.2221526  22.3486825  43.6902622
  34.6518777  23.2218587  44.7876367  20.0665237  17.7510618  58.4575600
  20.7124101  17.2409572  58.9462825  19.8582388  18.4879300  59.0319025
  32.5918629  24.8191466  63.9567740  33.4609789  24.9932118  63.5954375
  32.1125381  25.6385883  63.8343470  28.5868847  12.0150663  44.2099496
  28.5747517  12.9592503  44.3667767  29.4792269  11.8320808  43.9158957
  26.7604809  31.9388567  55.6357174  27.6632056  31.9712177  55.9523669
  26.5342179  31.0089018  55.6503510  28.5158411  30.6919553  52.2967253
  27.5654042  30.6921415  52.1831625  28.8190897  29.9452288  51.7803287
  32.4020967   8.6093440  48.4645433  31.6353363   8.0551926  48.6102115
  32.8131672   8.6815308  49.3259584  24.4062728  14.8978235  62.5550614
  25.2694189  14.5415040  62.7653938  23.8328139  14.5592130  63.2426018
  44.2511105  36.5280092  53.3613015  44.8889515  36.4086839  52.6576355
  44.1331948  37.4760936  53.4200967  41.0600811  36.4807520  53.2974540
  40.7219323  36.3648585  52.4095074  41.9290579  36.0798685  53.2775546
  36.9187627  38.3342996  49.2871431  36.3552492  38.2432933  48.5187718
  36.8040022  37.5142901  49.7673923  41.5420594  37.6342372  59.2560745
  41.5309235  37.2395170  58.3841249  41.7041234  36.9008444  59.8494517
  34.4652059  39.8294188  52.1255651  35.2573351  39.4885013  51.7101950
  34.7048709  39.9389163  53.0457804  36.4242813  39.0903101  44.9973030
  37.1973689  38.5432088  44.8585906  36.7768212  39.9547351  45.2087491
  38.2627855  40.4179483  58.2039929  37.9717721  41.3225114  58.0886595
  38.8984840  40.4596011  58.9183999  39.1884062  37.7956332  54.7941289
  39.7847634  37.5712354  54.0798252  39.2459034  37.0541077  55.3966737
  38.7609091  35.2495767  42.6291480  39.0134611  34.7277289  41.8674943
  37.8233650  35.0861913  42.7318163  43.8052373  34.2531546  50.4366223
  44.5915463  33.8350969  50.0856640  44.0691078  35.1577638  50.6047871
  43.9762451  39.6904396  45.1354880  43.3408284  39.7639023  45.8475784
  43.6459857  40.2797995  44.4573959  49.2060800  34.1906779  51.3399201
  49.9385972  33.6205996  51.5737031  48.4500156  33.8028379  51.7805707
  38.4805379  37.1523873  44.8315855  38.3641637  36.4768777  45.4996939
  38.5907639  36.6656247  44.0148008  40.8236920  36.6134020  48.5362544
  40.4595127  36.0864641  49.2475465  41.6804036  36.2232489  48.3629029
  46.7286221  27.9028353  55.7993810  46.3969546  28.7723764  55.5755025
  46.1331834  27.5864637  56.4787840  40.4642407  31.6423920  43.5323892
  40.6316810  32.5104156  43.8994363  40.2739576  31.8051202  42.6085182
  43.2217740  40.1040899  55.1989723  42.9218463  41.0065938  55.0905530
  42.8768800  39.8373082  56.0510876  36.6730222  36.5554696  51.2326427
  35.7480718  36.4230910  51.4404119  36.9214635  37.3348915  51.7296370
  46.6214884  32.6223439  52.8787160  45.7131761  32.5538848  52.5845921
  46.5702480  33.0995384  53.7068986  40.4431628  34.0981578  44.5170559
  40.3231253  34.5438628  45.3556040  39.7484216  34.4466895  43.9584097
  34.0339033  36.1987969  52.0670216  34.1631414  36.4522448  52.9809628
  33.3536484  36.7915677  51.7474871  40.6955750  34.0413085  60.8222057
  39.9189084  34.6007005  60.8124922  41.3346313  34.5269868  61.3436928
  48.4876531  30.8239878  54.6565034  47.8450911  31.1172411  54.0104829
  47.9831459  30.7092798  55.4618231  46.1416694  34.5703051  45.3450893
  47.0534550  34.8030438  45.1698591  45.6326341  35.1540095  44.7825972
  38.9502122  36.8498538  60.3840024  39.6916807  37.3883582  60.1074848
  38.2439108  37.4764827  60.5411576  44.4257462  38.9927679  58.9812186
  44.8340818  38.5510089  58.2366818  43.7034723  38.4180306  59.2346379
  40.7788532  33.9300285  56.3545743  41.6249727  34.3539699  56.4980392
  40.7187170  33.2733910  57.0484306  44.7486277  39.5528869  52.7364475
  44.1195139  39.7174583  52.0340543  44.3611939  39.9670479  53.5075439
  48.6275508  40.4883307  50.0908839  47.9426547  40.8682208  49.5405872
  48.7119358  41.0978634  50.8240786  43.9287977  31.5904654  58.0126916
  43.6848909  32.3446714  57.4761192  44.2047908  31.9690001  58.8474164
  45.8826440  38.1343266  56.6904182  46.0943335  38.7775026  56.0138563
  45.8356188  37.3005583  56.2226112  43.4852669  30.7461087  53.5940754
  42.6237148  31.0442340  53.8857492  43.5115104  30.9631486  52.6621787
  40.3014238  39.2903277  50.0014560  40.7652584  39.5690980  49.2119182
  40.0371036  38.3886722  49.8187651  37.1938319  38.8374759  52.9394323
  37.7639677  39.2662027  52.3011808  37.7846431  38.5557344  53.6378509
  39.2383124  35.4126430  46.8104125  39.9407168  35.8647473  47.2778051
  38.9063753  34.7710249  47.4384018  37.6863486  34.0038186  61.1855334
  37.0562147  34.6854467  61.4190731  37.5799574  33.8921268  60.2408473
  32.9808458  33.6709982  52.1121259  32.1907512  33.9267511  51.6361369
  33.4719706  34.4858320  52.2173299  46.9972268  41.0115222  54.8626539
  47.8189712  40.6095409  54.5809221  46.9934671  40.9083456  55.8142655
  34.9323204  34.0354562  49.0704735  34.1354367  34.1473256  49.5888231
  34.7048796  34.3741214  48.2045626  40.7628871  40.5599265  57.0187250
  40.8273304  41.0219672  57.8545422  40.0539795  39.9296630  57.1469560
  31.2646161  33.9240473  54.5436249  31.5154200  34.8087483  54.8093825
  31.8005710  33.7445074  53.7711341  55.0878261  37.3553970  51.2111511
  54.3341969  36.7861368  51.0555515  55.2225802  37.3216634  52.1582146
  36.9644229  28.3058952  63.5480585  36.5711174  27.7525151  64.2228230
  37.7810369  28.6169531  63.9387103  33.9306286  39.7442810  47.4594155
  34.4430807  40.5386061  47.6099720  34.5828999  39.0469101  47.3927757
  35.7401171  42.8608567  49.5416908  35.9167799  43.7826531  49.3537892
  36.5358005  42.5466986  49.9711288  39.8812190  29.7216831  61.1400842
  40.6221903  30.3223984  61.0605304  40.1130113  28.9794469  60.5818885
  35.0253528  34.9073198  59.4179072  34.9107043  34.0058456  59.7186171
  34.1698045  35.1536895  59.0663888  42.1045365  42.8490939  61.0166572
  41.6609220  42.0627317  60.6987477  42.7662579  43.0370089  60.3510463
  36.8632487  44.3786740  55.5427251  37.4139912  44.2503804  54.7704245
  36.0243963  44.6781629  55.1922144  44.2026603  43.1293739  59.0447974
  44.1845079  43.9502620  58.5528243  45.1246524  43.0047814  59.2698115
  40.6599658  40.6437868  59.8871482  41.1927994  39.8826156  59.6570790
  40.1313739  40.3511520  60.6295636  43.8269353  25.7497934  55.4165124
  43.4833622  26.6399576  55.3404234  44.1948315  25.5599592  54.5534709
  31.8955203  38.0731465  48.2353726  32.7330425  38.4828473  48.0187434
  32.0733471  37.1330907  48.2053920  43.7919635  35.7406545  43.9237559
  43.2766259  36.5111150  44.1625946  43.5196944  35.0671681  44.5470620
  41.3766746  30.5856246  48.9822797  40.5208343  30.1963096  48.8028436
  41.7893698  30.6648207  48.1222583  42.9065893  28.1202589  53.3814357
  42.4030689  28.0832724  52.5682162  43.1996500  29.0295332  53.4411014
  39.1508779  28.2041319  52.3880539  40.0161776  28.0084128  52.0286428
  39.2186288  27.9751671  53.3149895  48.7653909  38.4938900  45.8590732
  47.9883352  38.1550059  45.4145894  49.4445390  38.4991523  45.1845697
  43.5805939  33.6133637  45.7497340  43.2756074  33.9279787  46.6007483
  44.5336381  33.6915057  45.7924673  47.0045216  37.9672881  52.5157340
  46.3468891  38.6572143  52.6037469  47.8085616  38.3569313  52.8591327
  36.7571098  30.4343527  49.7596905  37.3314850  30.2118708  49.0270098
  37.3442080  30.5032221  50.5125507  45.8150675  36.3217254  50.5661282
  46.3282557  36.9547246  51.0682992  46.4651899  35.7218449  50.2004642
  37.0840685  32.4647988  43.7792791  36.2477997  32.8022675  44.1002065
  36.9445455  32.3296968  42.8419928  39.0593766  27.3084776  48.4871975
  38.4058178  26.9933793  47.8628590  39.0174240  26.6860516  49.2131798
  40.1704971  37.5904071  40.4025267  39.2632032  37.3593324  40.6016416
  40.6676003  36.7941690  40.5899249  42.2931506  33.7966709  52.8119623
  41.3754067  34.0181656  52.6541311  42.7091650  33.8713020  51.9531330
  43.0766554  35.1958125  47.9422303  43.8238373  35.7079522  47.6329425
  43.3458143  34.8742178  48.8026696  41.3493204  37.6916666  44.9249257
  40.4404423  37.4075699  45.0221727  41.3788288  38.1115744  44.0652564
  46.5812471  41.3023255  48.6940425  46.1274798  40.4614165  48.7505615
  45.9506438  41.9384654  49.0315205  45.5245391  32.2315241  49.9241092
  44.7868148  31.7192628  50.2551335  45.7772164  31.7915623  49.1124369
  45.6257018  25.0091493  50.5182861  45.9315895  24.1488857  50.2308776
  46.3509623  25.6009114  50.3181855  31.9181374  35.4122180  48.9064459
  31.7205774  34.8191541  48.1815526  31.3628038  35.1074390  49.6240398
  39.8978098  35.3045286  51.0259052  39.9526708  34.3519123  50.9501529
  39.0869300  35.4604726  51.5100351  41.0469292  39.2325409  42.2637336
  40.6088722  38.5161268  41.8042973  41.7879733  39.4601524  41.7022427
  37.8370458  33.9222346  48.7849431  37.0238323  34.2216517  49.1914623
  38.3329452  33.5278035  49.5023914  43.4344670  34.3864171  57.6164325
  43.7894057  34.6135644  58.4758791  44.0816801  34.7182547  56.9941580
  49.1642407  37.5082607  48.3213654  49.0260305  37.6984203  47.3934843
  48.8078625  38.2701989  48.7781705  37.3284533  31.4940702  54.4010666
  37.9683912  31.3529461  53.7033630  36.4962063  31.2075215  54.0249268
  49.1911786  39.5759134  53.3324926  49.6248293  39.4834423  54.1807980
  49.9043367  39.5516634  52.6944942  38.1044837  40.7943132  50.5145659
  38.8985435  40.2993452  50.3128234  37.3936529  40.2660995  50.1513364
  34.4127600  34.9386214  46.5905411  33.4825188  34.8770669  46.8075374
  34.5085072  34.4162167  45.7942053  34.3313149  31.4641027  49.1783653
  34.5919966  32.3786360  49.0692814  35.1530321  30.9965469  49.3280266
  35.8038074  32.8778784  56.3482478  36.4761128  32.6696146  55.6995127
  34.9767861  32.6800870  55.9087710  50.0527336  39.6182834  55.8657811
  50.2463226  40.5228645  56.1117086  49.9527954  39.1590253  56.6996396
  41.7063646  29.5040725  58.3648138  41.0591562  30.2030674  58.2712615
  42.4764662  29.9376869  58.7324387  41.8827781  37.3421490  56.4244958
  42.8119841  37.4932649  56.2513926  41.4618811  37.4305510  55.5693605
  36.2065572  36.1521387  57.1084915  36.0685370  35.4201626  57.7096454
  37.1170495  36.0630287  56.8269103  45.1680519  38.0909791  41.8569393
  44.5509690  37.3656619  41.7602446  44.6997008  38.8519151  41.5136468
  38.8347872  35.8641346  56.5968594  39.5447491  35.2234538  56.5555213
  38.7917181  36.1154241  57.5194775  46.8234651  42.8008699  59.5175174
  46.7647197  42.1167920  58.8505757  47.2254169  43.5427689  59.0655800
  37.5476806  32.8506564  58.4164234  37.0114163  32.3997302  59.0685830
  36.9593515  32.9852473  57.6734698  36.9579065  32.3095215  40.9790698
  36.0808532  32.1884016  40.6152944  37.4336818  31.5181294  40.7269586
  46.8252058  40.7648283  57.7489153  45.9378837  40.4274205  57.8715552
  47.3950609  40.0331315  57.9857919  28.4781205  37.0972375  51.0732205
  29.1652245  36.7834105  50.4853220  28.3229334  38.0013740  50.7999456
  33.2815928  31.9862572  55.5017228  33.1974116  31.3788241  54.7667638
  32.4598634  32.4771590  55.5026725  43.4539641  30.4716135  50.8687423
  43.9508341  29.7186098  50.5488494  42.6826623  30.5080452  50.3030633
  51.3069399  36.1756501  52.5105715  51.2959275  37.0581216  52.1399648
  50.4386778  35.8228052  52.3160252  44.5369422  39.2287822  48.4425847
  43.6025701  39.3489285  48.2730551  44.7146091  38.3260289  48.1785857
  40.0374610  32.6133518  50.5959108  39.6672398  32.0604559  51.2840014
  40.5333703  32.0091652  50.0434108  47.9241973  35.0705142  48.9775881
  48.3902426  35.9033133  48.9036184  48.3749474  34.6050123  49.6821139
  37.8663809  43.0731013  57.6914126  38.5673268  43.7067496  57.8443520
  37.3958924  43.4145745  56.9309765  45.9918205  41.4148963  45.9762033
  46.2678049  41.3005558  46.8855907  45.1222703  41.0166448  45.9374206
  45.8958636  27.4385729  53.0166782  44.9821716  27.6689956  53.1848989
  46.3251738  27.5224173  53.8680815  45.6665095  35.6275621  55.5166676
  45.0136545  35.8751528  54.8619129  46.0445475  34.8139759  55.1829154
  41.7152668  36.3695432  62.0032713  41.0393305  36.2689561  62.6735089
  42.5380302  36.2134646  62.4668711  33.4631527  42.6067368  54.6245229
  34.0484964  41.8611056  54.7573133  33.2656365  42.9171325  55.5081893
  36.3170182  45.6418616  49.6407671  35.6480557  46.1264743  49.1571711
  36.1783052  45.8887836  50.5551050  28.0549182  35.1772969  53.3449672
  28.0933281  34.6436559  54.1386790  27.5489474  34.6508174  52.7260649
  35.4339944  30.0237509  56.8412214  35.4981270  30.8852340  56.4289612
  35.3707064  29.4111511  56.1084573  34.9092216  32.0960642  60.4885248
  35.5364255  31.7137719  61.1022773  34.0520135  31.8774844  60.8540941
  45.3086325  42.5023617  62.0938984  45.8526229  43.1153575  61.5993939
  44.7273170  43.0603195  62.6105997  31.6857759  33.9037071  46.4203603
  31.9811200  32.9947749  46.3670657  30.7845795  33.8824810  46.0984606
  35.2152006  31.9793067  52.4031152  34.4938592  32.5929035  52.2638625
  36.0045262  32.5150832  52.3247798  38.0178320  29.3147494  58.6771804
  38.5412721  29.5609790  59.4398113  37.7990653  30.1467529  58.2574941
  33.4145601  31.5851168  46.5442928  33.0858307  30.7048547  46.3618034
  33.7684971  31.5298837  47.4319318  36.5287424  31.8724138  46.9118406
  36.8683496  32.4010059  46.1897014  36.9759544  32.2104544  47.6876973
  39.2230865  30.2561189  56.3621474  38.8827685  29.4569002  56.7642154
  38.5169871  30.5562900  55.7898307  39.8747337  27.3410501  54.8148797
  40.6973406  26.8670979  54.6927687  40.1185400  28.1200985  55.3147483
  38.5155571  30.3698760  45.1111699  39.2363934  30.7480013  44.6075416
  37.8920875  31.0887637  45.2146677  42.6586694  31.0743909  46.0470031
  42.8750308  31.9568547  45.7458859  42.1780761  30.6830122  45.3175673
  37.3985915  34.0329622  52.6240776  37.2530496  34.3469925  53.5165057
  36.9211119  34.6514522  52.0711674  39.2582298  31.0232170  52.6721665
  39.2443867  30.1273263  52.3353963  39.9754726  31.0302834  53.3059951
  41.1108429  31.4569510  54.7174793  40.8526207  32.3786581  54.7159123
  40.5793469  31.0599945  55.4075257  31.8731577  36.5734966  55.5628437
  31.3285046  37.3494774  55.6948711  32.7510927  36.9205771  55.4047558
  38.6619194  29.9046550  47.9409235  38.7835105  28.9763196  48.1400123
  38.3721236  29.9185236  47.0287551  41.5310384  27.5901461  51.0775955
  41.5532081  27.6540794  50.1227935  41.9478444  26.7505969  51.2716461
  51.9094009  37.3256720  49.1155178  52.3525155  36.5764045  48.7174301
  51.0320519  37.3166857  48.7328910  32.6597599  35.7004863  58.4558594
  31.9179335  35.8487498  59.0423224  32.3390344  35.9613128  57.5925343
  48.9421213  41.3286767  46.1249107  49.4672537  41.6674040  45.3998427
  48.8543566  40.3933782  45.9412242  31.3062818  41.5056618  51.4457922
  30.4694726  41.0778792  51.2641923  31.2786463  41.6989061  52.3828713
  38.1460274  31.4178548  62.1499168  38.1948429  32.2940670  61.7676938
  38.6882788  30.8755941  61.5770811  48.6315119  41.9619671  61.4300305
  47.8410663  41.9443810  60.8904805  48.3948474  42.5007965  62.1849342
  48.7512994  38.8112137  58.7433034  48.8010999  38.6462145  59.6848556
  48.6426918  37.9439396  58.3530914  37.6349253  41.4900683  46.0325123
  37.7837373  42.1736147  45.3791795  38.4415697  41.4705773  46.5474578
  46.0416757  34.7943065  60.0592340  46.9426620  34.6549530  59.7676338
  46.1164731  34.9597520  60.9990518  40.3759562  32.1709920  58.9045527
  39.5062872  32.4643486  58.6328115  40.6119042  32.7550365  59.6252790
  50.2531191  41.2309079  58.9875055  49.9616000  41.5939059  59.8238516
  49.6403322  40.5176087  58.8088387  51.4526874  38.7961958  51.5077625
  52.2873765  39.2351763  51.6715186  51.5886002  38.3200612  50.6885871
  48.5018379  36.3541693  57.4555113  48.9772501  36.5469340  56.6473965
  47.5783945  36.4100879  57.2098497  35.3901886  37.5165861  47.0386191
  35.1447928  36.6128191  47.2366402  35.5597801  37.5183011  46.0965669
  43.0798596  28.3889537  56.4210947  43.5980540  29.1250564  56.0957436
  42.7253729  28.6953530  57.2557706  34.6597534  33.2494218  44.5372353
  33.9666779  33.3238573  43.8812389  34.4149285  32.4854562  45.0593870
  43.3311190  24.8089819  51.9411844  43.6112944  24.1413008  52.5672270
  44.1161797  25.0018915  51.4286507  47.2020048  33.2307453  55.6883419
  48.1537471  33.3305551  55.7095643  47.0323499  32.4385722  56.1981503
  45.2234428  30.3163037  55.8742820  44.6284360  30.5968049  55.1789308
  44.9384125  30.8056938  56.6459561  49.6808126  36.4513573  54.8025718
  49.6484446  35.5129574  54.9885402  50.2908750  36.5297610  54.0691543
  41.5191457  35.3209626  40.8452922  42.4650562  35.1915834  40.9141340
  41.1405702  34.5824288  41.3222351  49.8302615  33.2424617  54.8484002
  49.3141663  32.4583073  54.6613930  50.7142563  32.9143333  55.0130521
  47.4913342  26.9865632  50.8079814  47.2938163  26.6780720  51.6923146
  48.1013047  27.7127271  50.9377744  55.4984676  37.5129580  53.9431755
  56.2288065  37.2514868  54.5039459  54.8891622  36.7758302  53.9833823
  53.5799973  35.6537443  54.5406206  52.8533137  35.5193407  53.9322698
  53.1647260  35.9614271  55.3462924  41.4030150  39.3727372  62.3053579
  42.3233159  39.5505971  62.4993626  41.3679733  38.4283418  62.1533279
  39.7034374  33.2459602  40.7807808  38.7965830  32.9492715  40.8570521
  39.9810355  32.9489421  39.9142094  30.6212315  34.5665966  51.2306854
  30.3015099  33.7131274  50.9381228  30.0745743  34.7814544  51.9864821
  34.3992222  37.2828407  54.9476361  34.6178232  38.2145515  54.9664394
  34.8117996  36.9236381  55.7331164  41.3196440  27.7896492  46.9352049
  40.5097168  27.4443577  47.3107295  42.0080857  27.4804036  47.5239661
  43.2486988  26.8674539  48.5576346  43.8018027  27.2869992  49.2166369
  43.4857075  25.9410287  48.5999302  39.2720087  32.8561613  64.3379110
  39.1716814  33.8055970  64.2691201  39.0541630  32.5279852  63.4655180
  38.4733159  30.1046538  40.9219787  39.3352323  30.4301436  41.1815604
  38.6583503  29.3178034  40.4092853  30.4900575  38.1868877  53.1999976
  29.7964046  37.7722830  52.6869930  31.2373566  38.2289414  52.6033395
  46.6265795  28.9775064  48.0655010  46.0464464  29.6359868  47.6833062
  46.3601728  28.1552409  47.6542427  45.0769362  28.3780122  50.2676330
  45.5769140  28.4896656  49.4590649  45.7204970  28.0741175  50.9077139
  39.1351358  36.2858751  63.1544171  38.6518439  37.0859112  63.3608060
  39.2212297  36.2966696  62.2011615  32.4037317  38.1187131  51.0765991
  32.3808005  38.2174818  50.1247874  32.7137954  38.9652282  51.3983157
  35.0624695  40.1763286  55.1912605  36.0167949  40.1447229  55.1242537
  34.8637219  39.7153910  56.0062831  35.6524077  38.7464402  57.7583403
  36.4716966  39.2408481  57.7818240  35.9260885  37.8296370  57.7300970
  45.4090673  31.1375155  47.1211358  44.5216528  31.4224805  46.9031553
  45.8244662  30.9768918  46.2738635  48.7605210  31.1621676  50.8365697
  49.5365600  31.6518128  51.1090314  48.0353344  31.5879730  51.2937567
  51.1977768  31.8749295  51.8939638  51.7922259  31.6345031  51.1832946
  51.2704352  31.1556425  52.5213174  33.4174924  45.7182906  52.2082803
  33.2829392  44.9583307  51.6420801  33.0006986  46.4423806  51.7411592
  44.5533887  40.9019829  41.2159378  45.2569737  41.1069832  41.8317034
  43.8296536  41.4696591  41.4808462  45.3831697  36.6529690  47.3361648
  45.3266899  37.1098242  46.4969281  45.9360040  35.8920375  47.1584491
  49.1936503  32.4419422  48.1611768  48.9373437  32.0416058  48.9919975
  48.5689371  33.1563216  48.0361907  53.5048841  35.1815496  50.6683059
  52.9448399  35.2508685  51.4414621  52.8992344  35.0056480  49.9482555
  36.5744050  46.6152223  52.4201245  36.4576434  47.5597655  52.3179936
  35.7536496  46.3125784  52.8087045  46.4620584  41.3402358  43.2657838
  47.2966188  40.9083557  43.0835313  46.3004927  41.1684372  44.1934733
  46.1166476  37.8434472  44.6314177  46.0615280  37.6778743  43.6902622
  45.4912532  38.5510505  44.7876367  30.9058991  33.0802536  58.4575600
  31.5517855  32.5701490  58.9462825  30.6976143  33.8171218  59.0319025
  43.4312384  40.1483384  63.9567740  44.3003543  40.3224036  63.5954375
  42.9519135  40.9677800  63.8343470  39.4262602  27.3442581  44.2099496
  39.4141272  28.2884421  44.3667767  40.3186024  27.1612726  43.9158957
  43.2414721  23.9385357  48.4645433  42.4747117  23.3843844  48.6102115
  43.6525426  24.0107226  49.3259584  35.2456482  30.2270153  62.5550614
  36.1087944  29.8706958  62.7653938  34.6721893  29.8884048  63.2426018
  51.8994566  51.8099438  53.2974540  51.5613077  51.6940502  52.4095074
  52.7684334  51.4090603  53.2775546  49.1021610  55.7471401  58.2039929
  48.8111476  56.6517032  58.0886595  49.7378594  55.7887929  58.9183999
  50.0277817  53.1248250  54.7941289  50.6241389  52.9004272  54.0798252
  50.0852788  52.3832995  55.3966737  51.3036162  46.9715838  43.5323892
  51.4710564  47.8396074  43.8994363  51.1133331  47.1343119  42.6085182
  54.0611495  55.4332817  55.1989723  53.7612218  56.3357855  55.0905530
  53.7162554  55.1665000  56.0510876  49.7895877  52.1790456  60.3840024
  50.5310561  52.7175500  60.1074848  49.0832862  52.8056745  60.5411576
  51.6182286  49.2592203  56.3545743  52.4643482  49.6831617  56.4980392
  51.5580924  48.6025827  57.0484306  56.7220194  53.4635184  56.6904182
  56.9337090  54.1066944  56.0138563  56.6749943  52.6297500  56.2226112
  54.3246423  46.0753004  53.5940754  53.4630902  46.3734258  53.8857492
  54.3508858  46.2923403  52.6621787  48.0332074  54.1666677  52.9394323
  48.6033431  54.5953945  52.3011808  48.6240186  53.8849261  53.6378509
  51.6022626  55.8891182  57.0187250  51.6667058  56.3511590  57.8545422
  50.8933550  55.2588547  57.1469560  65.9272015  52.6845888  51.2111511
  65.1735724  52.1153286  51.0555515  66.0619557  52.6508552  52.1582146
  47.8037983  43.6350870  63.5480585  47.4104929  43.0817068  64.2228230
  48.6204124  43.9461448  63.9387103  47.7026241  59.7078658  55.5427251
  48.2533666  59.5795721  54.7704245  46.8637717  60.0073547  55.1922144
  54.6663107  41.0789852  55.4165124  54.3227377  41.9691494  55.3404234
  55.0342070  40.8891509  54.5534709  52.2160501  45.9148164  48.9822797
  51.3602097  45.5255014  48.8028436  52.6287453  45.9940125  48.1222583
  49.9902533  43.5333237  52.3880539  50.8555530  43.3376045  52.0286428
  50.0580042  43.3043588  53.3149895  47.5964852  45.7635445  49.7596905
  48.1708604  45.5410626  49.0270098  48.1835835  45.8324139  50.5125507
  49.8987520  42.6376694  48.4871975  49.2451933  42.3225711  47.8628590
  49.8567994  42.0152434  49.2131798  53.9166804  61.6293496  43.3221953
  53.2428503  61.9325193  43.9306911  54.3032626  62.4322576  42.9727410
  56.4650773  40.3383411  50.5182861  56.7709650  39.4780774  50.2308776
  57.1903378  40.9301031  50.3181855  50.7371853  50.6337204  51.0259052
  50.7920462  49.6811041  50.9501529  49.9263055  50.7896643  51.5100351
  54.2738424  49.7156088  57.6164325  54.6287812  49.9427561  58.4758791
  54.9210555  50.0474465  56.9941580  53.7633436  58.5053145  54.8658026
  53.8170458  59.0744082  55.6335742  52.8948217  58.6755030  54.5012063
  52.7221535  52.6713407  56.4244958  53.6513595  52.8224567  56.2513926
  52.3012565  52.7597428  55.5693605  51.5209867  56.6964072  54.1943496
  51.3820953  56.3282856  55.0669434  50.7324463  57.2111711  54.0227454
  49.6741627  51.1933264  56.5968594  50.3841245  50.5526456  56.5555213
  49.6310935  51.4446159  57.5194775  57.6628406  58.1300617  59.5175174
  57.6040952  57.4459837  58.8505757  58.0647924  58.8719607  59.0655800
  46.6819104  64.9462531  52.3108893  46.9215703  65.5781055  52.9887911
  45.8388301  64.5950571  52.5974252  57.6645813  56.0940201  57.7489153
  56.7772592  55.7566123  57.8715552  58.2344364  55.3623232  57.9857919
  51.1946966  60.7541653  54.7150396  51.1217138  61.5596625  55.2269701
  50.7524359  60.9533619  53.8898418  53.6545650  60.6528487  56.8708555
  54.3673622  61.2875952  56.7984457  53.1635678  60.7492353  56.0548557
  50.8768365  47.9425436  50.5959108  50.5066152  47.3896476  51.2840014
  51.3727457  47.3383569  50.0434108  48.7057563  58.4022931  57.6914126
  49.4067023  59.0359414  57.8443520  48.2352678  58.7437662  56.9309765
  56.7352391  42.7677646  53.0166782  55.8215471  42.9981873  53.1848989
  57.1645492  42.8516090  53.8680815  56.5058849  50.9567538  55.5166676
  55.8530299  51.2043446  54.8619129  56.8839229  50.1431677  55.1829154
  44.3025281  57.9359286  54.6245229  44.8878718  57.1902974  54.7573133
  44.1050120  58.2463243  55.5081893  51.2969205  63.0054277  56.2390329
  51.8487513  63.1685898  57.0039415  51.6375399  63.5958715  55.5670354
  48.8572074  44.6439411  58.6771804  49.3806476  44.8901708  59.4398113
  48.6384407  45.4759446  58.2574941  50.0624619  45.5853107  56.3621474
  49.7221440  44.7860920  56.7642154  49.3563625  45.8854817  55.7898307
  50.7141091  42.6702419  54.8148797  51.5367160  42.1962897  54.6927687
  50.9579155  43.4492903  55.3147483  49.3549326  45.6990677  45.1111699
  50.0757688  46.0771930  44.6075416  48.7314630  46.4179554  45.2146677
  53.4980448  46.4035826  46.0470031  53.7144063  47.2860464  45.7458859
  53.0174516  46.0122040  45.3175673  48.2379670  49.3621540  52.6240776
  48.0924251  49.6761843  53.5165057  47.7604873  49.9806440  52.0711674
  50.0976053  46.3524088  52.6721665  50.0837621  45.4565181  52.3353963
  50.8148481  46.3594751  53.3059951  51.9502183  46.7861428  54.7174793
  51.6919961  47.7078498  54.7159123  51.4187224  46.3891862  55.4075257
  52.3704139  42.9193378  51.0775955  52.3925836  42.9832711  50.1227935
  52.7872198  42.0797887  51.2716461  57.8823545  59.2078979  44.5961776
  58.5774449  59.8285672  44.8149091  58.2246695  58.3574331  44.8714154
  51.4435016  60.5712758  58.2538984  51.7522143  60.3261905  59.1261683
  52.2410498  60.7759397  57.7657854  48.9129501  58.2688677  52.5566662
  48.2909510  57.6059382  52.2568890  49.5834368  58.2949809  51.8740310
  59.5906749  54.1404055  58.7433034  59.6404754  53.9754062  59.6848556
  59.4820672  53.2731314  58.3530914  61.0924946  56.5600996  58.9875055
  60.8009754  56.9230977  59.8238516  60.4797077  55.8468005  58.8088387
  53.9192350  43.7181455  56.4210947  54.4374294  44.4542481  56.0957436
  53.5647483  44.0245448  57.2557706  54.1704945  40.1381737  51.9411844
  54.4506698  39.4704926  52.5672270  54.9555552  40.3310833  51.4286507
  56.0628182  45.6454954  55.8742820  55.4678115  45.9259967  55.1789308
  55.7777879  46.1348855  56.6459561  55.1935673  59.5977881  44.6345452
  56.1266346  59.5323443  44.8378328  55.1058886  60.4334148  44.1759985
  66.3378431  52.8421498  53.9431755  67.0681819  52.5806786  54.5039459
  65.7285376  52.1050220  53.9833823  52.1590194  43.1188410  46.9352049
  51.3490923  42.7735495  47.3107295  52.8474611  42.8095954  47.5239661
  54.0880743  42.1966457  48.5576346  54.6411781  42.6161910  49.2166369
  54.3250829  41.2702205  48.5999302  49.3126913  45.4338455  40.9219787
  50.1746077  45.7593354  41.1815604  49.4977258  44.6469951  40.4092853
  55.9163116  43.7072040  50.2676330  56.4162895  43.8188574  49.4590649
  56.5598724  43.4033092  50.9077139  46.4917832  54.0756320  57.7583403
  47.3110721  54.5700399  57.7818240  46.7654639  53.1588288  57.7300970
  44.2568678  61.0474823  52.2082803  44.1223146  60.2875224  51.6420801
  43.8400741  61.7715723  51.7411592  47.4137804  61.9444140  52.4201245
  47.2970188  62.8889573  52.3179936  46.5930250  61.6417702  52.8087045
  50.2656356  42.6734498  44.2099496  50.2535026  43.6176338  44.3667767
  51.1579778  42.4904644  43.9158957  48.4392318  62.5972402  55.6357174
  49.3419565  62.6296013  55.9523669  48.2129688  61.6672853  55.6503510
  54.0808476  39.2677275  48.4645433  53.3140872  38.7135762  48.6102115
  54.4919181  39.3399144  49.3259584  65.9298614  67.1863927  53.3613015
  66.5677024  67.0670675  52.6576355  65.8119457  68.1344771  53.4200967
  62.7388320  67.1391355  53.2974540  62.4006832  67.0232420  52.4095074
  63.6078088  66.7382520  53.2775546  58.5975136  68.9926832  49.2871431
  58.0340001  68.9016769  48.5187718  58.4827531  68.1726736  49.7673923
  63.2208103  68.2926207  59.2560745  63.2096744  67.8979005  58.3841249
  63.3828743  67.5592280  59.8494517  56.1439568  70.4878023  52.1255651
  56.9360860  70.1468848  51.7101950  56.3836218  70.5972998  53.0457804
  64.1774695  72.6597799  44.5985895  63.5262674  73.2451880  44.2119909
  64.9719057  73.1903994  44.6580933  58.1030322  69.7486937  44.9973030
  58.8761198  69.2015924  44.8585906  58.4555721  70.6131186  45.2087491
  59.9415364  71.0763319  58.2039929  59.6505230  71.9808950  58.0886595
  60.5772349  71.1179846  58.9183999  60.8671571  68.4540167  54.7941289
  61.4635143  68.2296190  54.0798252  60.9246543  67.7124913  55.3966737
  60.4396599  65.9079603  42.6291480  60.6922120  65.3861124  41.8674943
  59.5021159  65.7445748  42.7318163  65.4839882  64.9115381  50.4366223
  66.2702972  64.4934804  50.0856640  65.7478587  65.8161473  50.6047871
  65.6549960  70.3488231  45.1354880  65.0195793  70.4222858  45.8475784
  65.3247366  70.9381830  44.4573959  70.8848309  64.8490614  51.3399201
  71.6173481  64.2789831  51.5737031  70.1287665  64.4612215  51.7805707
  60.1592888  67.8107709  44.8315855  60.0429146  67.1352612  45.4996939
  60.2695148  67.3240083  44.0148008  62.5024429  67.2717856  48.5362544
  62.1382636  66.7448477  49.2475465  63.3591545  66.8816325  48.3629029
  68.4073730  58.5612188  55.7993810  68.0757055  59.4307599  55.5755025
  67.8119343  58.2448472  56.4787840  62.1429916  62.3007755  43.5323892
  62.3104318  63.1687992  43.8994363  61.9527085  62.4635037  42.6085182
  64.9005249  70.7624734  55.1989723  64.6005972  71.6649773  55.0905530
  64.5556309  70.4956918  56.0510876  58.3517731  67.2138531  51.2326427
  57.4268227  67.0814745  51.4404119  58.6002144  67.9932750  51.7296370
  68.3002393  63.2807275  52.8787160  67.3919270  63.2122683  52.5845921
  68.2489989  63.7579219  53.7068986  62.1219137  64.7565413  44.5170559
  62.0018762  65.2022464  45.3556040  61.4271725  65.1050731  43.9584097
  55.7126542  66.8571805  52.0670216  55.8418923  67.1106284  52.9809628
  55.0323993  67.4499513  51.7474871  59.8826029  77.5269055  48.1660690
  59.8050059  78.4776880  48.2449171  59.2787673  77.1814927  48.8235617
  62.3743259  64.6996920  60.8222057  61.5976593  65.2590840  60.8124922
  63.0133822  65.1853703  61.3436928  70.1664040  61.4823713  54.6565034
  69.5238420  61.7756246  54.0104829  69.6618968  61.3676633  55.4618231
  67.8204203  65.2286886  45.3450893  68.7322059  65.4614273  45.1698591
  67.3113850  65.8123930  44.7825972  60.6289631  67.5082373  60.3840024
  61.3704316  68.0467417  60.1074848  59.9226617  68.1348662  60.5411576
  66.1044971  69.6511514  58.9812186  66.5128327  69.2093924  58.2366818
  65.3822232  69.0764141  59.2346379  62.4576041  64.5884121  56.3545743
  63.3037236  65.0123534  56.4980392  62.3974679  63.9317745  57.0484306
  66.4273785  70.2112705  52.7364475  65.7982648  70.3758419  52.0340543
  66.0399448  70.6254314  53.5075439  70.3063017  71.1467142  50.0908839
  69.6214056  71.5266044  49.5405872  70.3906867  71.7562469  50.8240786
  65.6075486  62.2488489  58.0126916  65.3636418  63.0030550  57.4761192
  65.8835417  62.6273837  58.8474164  67.5613949  68.7927101  56.6904182
  67.7730844  69.4358861  56.0138563  67.5143697  67.9589418  56.2226112
  65.1640178  61.4044922  53.5940754  64.3024657  61.7026176  53.8857492
  65.1902613  61.6215321  52.6621787  61.9801747  69.9487113  50.0014560
  62.4440093  70.2274816  49.2119182  61.7158545  69.0470557  49.8187651
  58.8725828  69.4958594  52.9394323  59.4427185  69.9245863  52.3011808
  59.4633940  69.2141179  53.6378509  60.9170633  66.0710265  46.8104125
  61.6194677  66.5231309  47.2778051  60.5851262  65.4294084  47.4384018
  59.3650995  64.6622022  61.1855334  58.7349656  65.3438303  61.4190731
  59.2587083  64.5505103  60.2408473  68.6759777  71.6699057  54.8626539
  69.4977221  71.2679244  54.5809221  68.6722180  71.5667291  55.8142655
  62.4416380  71.2183100  57.0187250  62.5060813  71.6803507  57.8545422
  61.7327304  70.5880465  57.1469560  52.9433670  64.5824308  54.5436249
  53.1941709  65.4671318  54.8093825  53.4793219  64.4028910  53.7711341
  76.7665770  68.0137805  51.2111511  76.0129478  67.4445203  51.0555515
  76.9013311  67.9800470  52.1582146  62.1564398  72.8851208  46.8866230
  62.0210073  73.7302743  47.3151078  62.6974211  73.0870485  46.1232164
  55.6093795  70.4026646  47.4594155  56.1218316  71.1969896  47.6099720
  56.2616508  69.7052936  47.3927757  57.4188680  73.5192402  49.5416908
  57.5955308  74.4410367  49.3537892  58.2145514  73.2050821  49.9711288
  61.5599699  60.3800667  61.1400842  62.3009412  60.9807820  61.0605304
  61.7917621  59.6378304  60.5818885  56.7041037  65.5657034  59.4179072
  56.5894552  64.6642291  59.7186171  55.8485554  65.8120731  59.0663888
  63.7832874  73.5074774  61.0166572  63.3396729  72.7211153  60.6987477
  64.4450088  73.6953925  60.3510463  58.5419996  75.0370576  55.5427251
  59.0927421  74.9087639  54.7704245  57.7031471  75.3365465  55.1922144
  65.8814112  73.7877574  59.0447974  65.8632588  74.6086455  58.5528243
  66.8034033  73.6631649  59.2698115  62.3387167  71.3021704  59.8871482
  62.8715503  70.5409992  59.6570790  61.8101248  71.0095355  60.6295636
  65.5056862  56.4081770  55.4165124  65.1621131  57.2983411  55.3404234
  65.8735824  56.2183427  54.5534709  53.5742712  68.7315300  48.2353726
  54.4117934  69.1412308  48.0187434  53.7520980  67.7914742  48.2053920
  65.4707144  66.3990381  43.9237559  64.9553768  67.1694985  44.1625946
  65.1984453  65.7255517  44.5470620  63.0554255  61.2440081  48.9822797
  62.1995852  60.8546932  48.8028436  63.4681207  61.3232042  48.1222583
  64.5853402  58.7786425  53.3814357  64.0818198  58.7416560  52.5682162
  64.8784009  59.6879167  53.4411014  70.4441418  69.1522735  45.8590732
  69.6670861  68.8133895  45.4145894  71.1232899  69.1575358  45.1845697
  65.2593447  64.2717473  45.7497340  64.9543583  64.5863622  46.6007483
  66.2123890  64.3498893  45.7924673  63.7039879  70.4307696  47.3990294
  63.1761241  69.6960456  47.0863531  63.2027382  71.2082372  47.1530262
  68.6832725  68.6256717  52.5157340  68.0256400  69.3155978  52.6037469
  69.4873125  69.0153148  52.8591327  67.4938184  66.9801089  50.5661282
  68.0070066  67.6131081  51.0682992  68.1439408  66.3802285  50.2004642
  58.7628194  63.1231823  43.7792791  57.9265506  63.4606510  44.1002065
  58.6232964  62.9880803  42.8419928  61.8492480  68.2487906  40.4025267
  60.9419541  68.0177160  40.6016416  62.3463512  67.4525526  40.5899249
  64.7560558  76.9585413  43.3221953  64.0822257  77.2617110  43.9306911
  65.1426380  77.7614494  42.9727410  63.9719015  64.4550545  52.8119623
  63.0541576  64.6765492  52.6541311  64.3879159  64.5296855  51.9531330
  64.7554063  65.8541960  47.9422303  65.5025882  66.3663358  47.6329425
  65.0245652  65.5326013  48.8026696  63.0280713  68.3500501  44.9249257
  62.1191932  68.0659534  45.0221727  63.0575797  68.7699580  44.0652564
  68.2599980  71.9607091  48.6940425  67.8062307  71.1198001  48.7505615
  67.6293947  72.5968489  49.0315205  67.2032900  62.8899077  49.9241092
  66.4655657  62.3776463  50.2551335  67.4559673  62.4499458  49.1124369
  66.7032920  73.7983587  49.6290243  66.9955894  74.3588644  48.9102608
  67.2131540  74.0912148  50.3843402  61.5765607  65.9629122  51.0259052
  61.6314217  65.0102958  50.9501529  60.7656809  66.1188561  51.5100351
  62.7256801  69.8909245  42.2637336  62.2876231  69.1745104  41.8042973
  63.4667242  70.1185360  41.7022427  59.5157967  64.5806182  48.7849431
  58.7025832  64.8800352  49.1914623  60.0116961  64.1861870  49.5023914
  61.6666545  74.5763938  50.7183696  61.6242724  74.8024785  49.7892228
  62.5829244  74.3427313  50.8669497  65.1132179  65.0448006  57.6164325
  65.4681566  65.2719479  58.4758791  65.7604310  65.3766383  56.9941580
  70.8429916  68.1666442  48.3213654  70.7047814  68.3568038  47.3934843
  70.4866134  68.9285825  48.7781705  59.0072042  62.1524537  54.4010666
  59.6471421  62.0113296  53.7033630  58.1749572  61.8659050  54.0249268
  70.8699295  70.2342969  53.3324926  71.3035802  70.1418258  54.1807980
  71.5830876  70.2100469  52.6944942  59.7832346  71.4526967  50.5145659
  60.5772944  70.9577288  50.3128234  59.0724038  70.9244831  50.1513364
  64.6027190  73.8345063  54.8658026  64.6564212  74.4035999  55.6335742
  63.7341971  74.0046948  54.5012063  56.0915109  65.5970049  46.5905411
  55.1612697  65.5354505  46.8075374  56.1872581  65.0746002  45.7942053
  71.7314845  70.2766670  55.8657811  71.9250735  71.1812480  56.1117086
  71.6315463  69.8174089  56.6996396  63.3851155  60.1624560  58.3648138
  62.7379070  60.8614510  58.2712615  64.1552171  60.5960704  58.7324387
  66.7929953  70.4273412  61.4398692  66.6415460  70.1983964  60.5228775
  66.7834633  71.3844014  61.4530037  63.5615290  68.0005325  56.4244958
  64.4907350  68.1516485  56.2513926  63.1406320  68.0889346  55.5693605
  62.3603622  72.0255989  54.1943496  62.2214707  71.6574774  55.0669434
  61.5718218  72.5403629  54.0227454  62.9551774  77.1265086  45.5369032
  63.1303529  76.6553129  46.3514655  62.2684562  77.7530852  45.7650293
  63.9108837  71.4037592  51.5832334  63.5758669  71.3638362  52.4789983
  63.4112782  70.7382308  51.1102744  57.8853081  66.8105222  57.1084915
  57.7472879  66.0785461  57.7096454  58.7958004  66.7214122  56.8269103
  66.8468028  68.7493626  41.8569393  66.2297199  68.0240455  41.7602446
  66.3784517  69.5102987  41.5136468  60.5135381  66.5225182  56.5968594
  61.2235000  65.8818374  56.5555213  60.4704690  66.7738076  57.5194775
  68.5022160  73.4592535  59.5175174  68.4434706  72.7751755  58.8505757
  68.9041678  74.2011525  59.0655800  59.2264315  63.5090399  58.4164234
  58.6901672  63.0581138  59.0685830  58.6381024  63.6436308  57.6734698
  57.5212859  80.2754449  52.3108893  57.7609457  80.9072973  52.9887911
  56.6782055  79.9242489  52.5974252  58.6366574  62.9679051  40.9790698
  57.7596041  62.8467852  40.6152944  59.1124327  62.1765129  40.7269586
  68.5039567  71.4232119  57.7489153  67.6166346  71.0858041  57.8715552
  69.0738118  70.6915150  57.9857919  50.1568714  67.7556211  51.0732205
  50.8439754  67.4417941  50.4853220  50.0016843  68.6597575  50.7999456
  54.9603437  62.6446407  55.5017228  54.8761625  62.0372077  54.7667638
  54.1386143  63.1355425  55.5026725  62.0340721  76.0833571  54.7150396
  61.9610892  76.8888543  55.2269701  61.5918114  76.2825537  53.8898418
  61.8230500  75.3205341  48.2253218  61.0398022  75.8627021  48.3191443
  62.5223245  75.8379321  48.6247459  65.1327150  61.1299971  50.8687423
  65.6295850  60.3769933  50.5488494  64.3614132  61.1664287  50.3030633
  72.9856908  66.8340336  52.5105715  72.9746784  67.7165052  52.1399648
  72.1174287  66.4811887  52.3160252  64.4939404  75.9820405  56.8708555
  65.2067376  76.6167870  56.7984457  64.0029433  76.0784271  56.0548557
  66.2156931  69.8871658  48.4425847  65.2813210  70.0073120  48.2730551
  66.3933600  68.9844125  48.1785857  61.7162119  63.2717354  50.5959108
  61.3459907  62.7188394  51.2840014  62.2121212  62.6675487  50.0434108
  69.6029482  65.7288977  48.9775881  70.0689935  66.5616969  48.9036184
  70.0536983  65.2633959  49.6821139  59.5451318  73.7314849  57.6914126
  60.2460777  74.3651332  57.8443520  59.0746433  74.0729580  56.9309765
  67.6705714  72.0732798  45.9762033  67.9465557  71.9589393  46.8855907
  66.8010212  71.6750283  45.9374206  67.5746145  58.0969564  53.0166782
  66.6609225  58.3273791  53.1848989  68.0039247  58.1808008  53.8680815
  67.3452604  66.2859456  55.5166676  66.6924054  66.5335364  54.8619129
  67.7232984  65.4723594  55.1829154  64.3059778  76.3219149  49.6194847
  64.4882172  75.5040805  50.0822599  65.1292764  76.5386842  49.1819737
  64.6401943  75.2487334  46.8809895  65.1689710  74.7379789  46.2680057
  64.9030163  74.9329865  47.7455428  63.3940177  67.0279267  62.0032713
  62.7180814  66.9273396  62.6735089  64.2167811  66.8718481  62.4668711
  55.1419036  73.2651204  54.6245229  55.7272473  72.5194892  54.7573133
  54.9443874  73.5755160  55.5081893  57.9957691  76.3002451  49.6407671
  57.3268066  76.7848579  49.1571711  57.8570561  76.5471672  50.5551050
  62.1362960  78.3346195  56.2390329  62.6881268  78.4977816  57.0039415
  62.4769153  78.9250632  55.5670354  57.1127453  60.6821344  56.8412214
  57.1768779  61.5436175  56.4289612  57.0494573  60.0695346  56.1084573
  56.5879725  62.7544477  60.4885248  57.2151764  62.3721554  61.1022773
  55.7307644  62.5358679  60.8540941  66.9873834  73.1607452  62.0938984
  67.5313738  73.7737410  61.5993939  66.4060679  73.7187031  62.6105997
  65.2731347  76.2828170  53.2254012  65.1482486  75.4817910  52.7164957
  65.9310438  76.7774363  52.7367982  56.8939515  62.6376903  52.4031152
  56.1726101  63.2512870  52.2638625  57.6832771  63.1734667  52.3247798
  67.3366255  74.0837190  54.8533562  66.3896591  73.9642541  54.7811888
  67.6849028  73.1959688  54.9359823  59.6965829  59.9731329  58.6771804
  60.2200230  60.2193626  59.4398113  59.4778162  60.8051364  58.2574941
  64.3412689  73.8789906  51.0537914  64.1937651  72.9506614  51.2345484
  65.1666182  73.9009997  50.5694989  67.9446810  74.7018465  52.1402787
  68.8693358  74.4961326  52.0027238  67.7762114  74.4534866  53.0492128
  60.9018374  60.9145024  56.3621474  60.5615194  60.1152837  56.7642154
  60.1957380  61.2146735  55.7898307  60.1943080  61.0282595  45.1111699
  60.9151443  61.4063848  44.6075416  59.5708384  61.7471472  45.2146677
  64.3374203  61.7327744  46.0470031  64.5537817  62.6152382  45.7458859
  63.8568270  61.3413957  45.3175673  59.0773424  64.6913457  52.6240776
  58.9318005  65.0053760  53.5165057  58.5998628  65.3098358  52.0711674
  60.9369807  61.6816005  52.6721665  60.9231376  60.7857099  52.3353963
  61.6542235  61.6886669  53.3059951  62.7895938  62.1153345  54.7174793
  62.5313716  63.0370416  54.7159123  62.2580978  61.7183780  55.4075257
  67.7342127  75.2204133  47.4964878  67.9079004  74.6550555  46.7438731
  68.2271018  76.0205027  47.3144368  53.5519086  67.2318802  55.5628437
  53.0072555  68.0078610  55.6948711  54.4298436  67.5789606  55.4047558
  60.3406703  60.5630386  47.9409235  60.4622614  59.6347032  48.1400123
  60.0508745  60.5769072  47.0287551  63.2097893  58.2485296  51.0775955
  63.2319590  58.3124629  50.1227935  63.6265952  57.4089805  51.2716461
  73.5881518  67.9840556  49.1155178  74.0312664  67.2347881  48.7174301
  72.7108028  67.9750692  48.7328910  68.7217299  74.5370897  44.5961776
  69.4168204  75.1577590  44.8149091  69.0640449  73.6866248  44.8714154
  54.3385108  66.3588698  58.4558594  53.5966844  66.5071333  59.0423224
  54.0177853  66.6196964  57.5925343  70.6208722  71.9870603  46.1249107
  71.1460046  72.3257875  45.3998427  70.5331075  71.0517618  45.9412242
  62.2828771  75.9004676  58.2538984  62.5915897  75.6553823  59.1261683
  63.0804253  76.1051315  57.7657854  62.3049383  78.0542586  50.4844360
  61.8654373  77.5618965  51.1777217  63.0557500  77.5115553  50.2436436
  54.7841722  74.2454127  50.4868988  55.6099742  73.9457899  50.1067632
  54.4335774  73.4761749  50.9358777  59.7523255  73.5980595  52.5566662
  59.1303264  72.9351300  52.2568890  60.4228122  73.6241727  51.8740310
  52.9850327  72.1640453  51.4457922  52.1482235  71.7362627  51.2641923
  52.9573972  72.3572896  52.3828713  59.8247783  62.0762383  62.1499168
  59.8735938  62.9524506  61.7676938  60.3670297  61.5339776  61.5770811
  70.3102628  72.6203506  61.4300305  69.5198172  72.6027645  60.8904805
  70.0735983  73.1591800  62.1849342  70.4300503  69.4695973  58.7433034
  70.4798508  69.3045980  59.6848556  70.3214427  68.6023232  58.3530914
  59.3136762  72.1484518  46.0325123  59.4624882  72.8319983  45.3791795
  60.1203206  72.1289608  46.5474578  67.7204266  65.4526901  60.0592340
  68.6214129  65.3133365  59.7676338  67.7952240  65.6181355  60.9990518
  62.0547071  62.8293755  58.9045527  61.1850380  63.1227321  58.6328115
  62.2906551  63.4134200  59.6252790  71.9318700  71.8892914  58.9875055
  71.6403508  72.2522895  59.8238516  71.3190831  71.1759922  58.8088387
  73.1314382  69.4545794  51.5077625  73.9661274  69.8935598  51.6715186
  73.2673511  68.9784447  50.6885871  70.1805888  67.0125529  57.4555113
  70.6560010  67.2053175  56.6473965  69.2571454  67.0684715  57.2098497
  57.0689395  68.1749696  47.0386191  56.8235437  67.2712026  47.2366402
  57.2385310  68.1766846  46.0965669  64.7586105  59.0473372  56.4210947
  65.2768049  59.7834399  56.0957436  64.4041238  59.3537366  57.2557706
  56.3385043  63.9078053  44.5372353  55.6454288  63.9822408  43.8812389
  56.0936794  63.1438397  45.0593870  65.0098699  55.4673655  51.9411844
  65.2900453  54.7996844  52.5672270  65.7949306  55.6602750  51.4286507
  62.8132168  74.6432649  43.5036870  62.2406135  75.2622836  43.0507342
  63.3864961  75.1932010  44.0376792  68.8807557  63.8891289  55.6883419
  69.8324980  63.9889386  55.7095643  68.7111008  63.0969557  56.1981503
  66.9021937  60.9746872  55.8742820  66.3071869  61.2551885  55.1789308
  66.6171634  61.4640773  56.6459561  66.0329427  74.9269799  44.6345452
  66.9660101  74.8615360  44.8378328  65.9452640  75.7626066  44.1759985
  68.6617444  74.2435669  41.5949400  68.5831076  73.9095533  42.4885158
  69.4827111  74.7357437  41.5940872  71.3595635  67.1097408  54.8025718
  71.3271955  66.1713409  54.9885402  71.9696259  67.1881445  54.0691543
  63.1978966  65.9793461  40.8452922  64.1438071  65.8499670  40.9141340
  62.8193211  65.2408123  41.3222351  71.5090124  63.9008452  54.8484002
  70.9929172  63.1166909  54.6613930  72.3930072  63.5727169  55.0130521
  69.1700851  57.6449467  50.8079814  68.9725672  57.3364556  51.6923146
  69.7800556  58.3711106  50.9377744  77.1772185  68.1713415  53.9431755
  77.9075574  67.9098703  54.5039459  76.5679131  67.4342137  53.9833823
  75.2587482  66.3121278  54.5406206  74.5320646  66.1777243  53.9322698
  74.8434769  66.6198107  55.3462924  63.0817659  70.0311208  62.3053579
  64.0020668  70.2089807  62.4993626  63.0467242  69.0867253  62.1533279
  61.3821883  63.9043438  40.7807808  60.4753339  63.6076551  40.8570521
  61.6597864  63.6073256  39.9142094  52.2999824  65.2249801  51.2306854
  51.9802608  64.3715109  50.9381228  51.7533252  65.4398379  51.9864821
  56.0779731  67.9412242  54.9476361  56.2965741  68.8729350  54.9664394
  56.4905505  67.5820217  55.7331164  62.9983949  58.4480328  46.9352049
  62.1884677  58.1027413  47.3107295  63.6868366  58.1387871  47.5239661
  64.9274497  57.5258374  48.5576346  65.4805536  57.9453828  49.2166369
  65.1644584  56.5994122  48.5999302  60.9507596  63.5145448  64.3379110
  60.8504323  64.4639805  64.2691201  60.7329139  63.1863687  63.4655180
  60.1520668  60.7630373  40.9219787  61.0139832  61.0885271  41.1815604
  60.3371012  59.9761869  40.4092853  52.1688084  68.8452713  53.1999976
  51.4751555  68.4306666  52.6869930  52.9161075  68.8873249  52.6033395
  68.3053304  59.6358899  48.0655010  67.7251973  60.2943704  47.6833062
  68.0389237  58.8136244  47.6542427  66.7556871  59.0363957  50.2676330
  67.2556649  59.1480492  49.4590649  67.3992479  58.7325010  50.9077139
  60.8138867  66.9442587  63.1544171  60.3305948  67.7442947  63.3608060
  60.8999806  66.9550532  62.2011615  54.0824826  68.7770967  51.0765991
  54.0595514  68.8758654  50.1247874  54.3925463  69.6236117  51.3983157
  56.7412204  70.8347122  55.1912605  57.6955458  70.8031064  55.1242537
  56.5424728  70.3737745  56.0062831  57.3311586  69.4048238  57.7583403
  58.1504475  69.8992316  57.7818240  57.6048394  68.4880206  57.7300970
  67.0878182  61.7958990  47.1211358  66.2004037  62.0808641  46.9031553
  67.5032171  61.6352753  46.2738635  70.4392718  61.8205511  50.8365697
  71.2153109  62.3101963  51.1090314  69.7140853  62.2463565  51.2937567
  72.8765277  62.5333130  51.8939638  73.4709768  62.2928866  51.1832946
  72.9491861  61.8140261  52.5213174  55.0962433  76.3766741  52.2082803
  54.9616901  75.6167142  51.6420801  54.6794495  77.1007641  51.7411592
  66.2321396  71.5603665  41.2159378  66.9357246  71.7653667  41.8317034
  65.5084045  72.1280426  41.4808462  67.0619206  67.3113526  47.3361648
  67.0054407  67.7682077  46.4969281  67.6147549  66.5504210  47.1584491
  70.8724012  63.1003258  48.1611768  70.6160946  62.6999893  48.9919975
  70.2476880  63.8147052  48.0361907  75.1836350  65.8399331  50.6683059
  74.6235908  65.9092520  51.4414621  74.5779853  65.6640316  49.9482555
  58.2531559  77.2736058  52.4201245  58.1363943  78.2181491  52.3179936
  57.4324005  76.9709620  52.8087045  68.1408093  71.9986194  43.2657838
  68.9753697  71.5667392  43.0835313  67.9792436  71.8268207  44.1934733
  67.7953985  68.5018307  44.6314177  67.7402789  68.3362578  43.6902622
  67.1700041  69.2094340  44.7876367  52.5846500  63.7386371  58.4575600
  53.2305364  63.2285325  58.9462825  52.3763652  64.4755053  59.0319025
  65.1099893  70.8067219  63.9567740  65.9791052  70.9807871  63.5954375
  64.6306644  71.6261636  63.8343470  59.2786073  77.9264320  55.6357174
  60.1813320  77.9587930  55.9523669  59.0523443  76.9964771  55.6503510
  61.0339675  76.6795306  52.2967253  60.0835306  76.6797168  52.1831625
  61.3372161  75.9328041  51.7803287  76.7692368  82.5155845  53.3613015
  77.4070778  82.3962592  52.6576355  76.6513211  83.4636689  53.4200967
  73.5782075  82.4683273  53.2974540  73.2400586  82.3524338  52.4095074
  74.4471843  82.0674438  53.2775546  69.4368890  84.3218749  49.2871431
  68.8733755  84.2308686  48.5187718  69.3221285  83.5018654  49.7673923
  74.0601858  83.6218125  59.2560745  74.0490498  83.2270923  58.3841249
  74.2222497  82.8884197  59.8494517  66.9833322  85.8169941  52.1255651
  67.7754614  85.4760766  51.7101950  67.2229972  85.9264916  53.0457804
  75.0168449  87.9889717  44.5985895  74.3656429  88.5743797  44.2119909
  75.8112812  88.5195912  44.6580933  68.9424076  85.0778854  44.9973030
  69.7154952  84.5307841  44.8585906  69.2949475  85.9423104  45.2087491
  70.7809119  86.4055237  58.2039929  70.4898985  87.3100867  58.0886595
  71.4166103  86.4471764  58.9183999  71.7065326  83.7832085  54.7941289
  72.3028898  83.5588107  54.0798252  71.7640297  83.0416831  55.3966737
  71.2790354  81.2371520  42.6291480  71.5315875  80.7153042  41.8674943
  70.3414913  81.0737666  42.7318163  76.3233637  80.2407299  50.4366223
  77.1096726  79.8226722  50.0856640  76.5872341  81.1453391  50.6047871
  76.4943714  85.6780149  45.1354880  75.8589547  85.7514776  45.8475784
  76.1641121  86.2673748  44.4573959  81.7242064  80.1782532  51.3399201
  82.4567236  79.6081749  51.5737031  80.9681420  79.7904132  51.7805707
  70.9986643  83.1399626  44.8315855  70.8822901  82.4644530  45.4996939
  71.1088903  82.6532000  44.0148008  73.3418184  82.6009773  48.5362544
  72.9776391  82.0740394  49.2475465  74.1985300  82.2108242  48.3629029
  79.2467484  73.8904106  55.7993810  78.9150809  74.7599517  55.5755025
  78.6513098  73.5740390  56.4787840  72.9823671  77.6299673  43.5323892
  73.1498073  78.4979910  43.8994363  72.7920840  77.7926955  42.6085182
  75.7399004  86.0916652  55.1989723  75.4399727  86.9941691  55.0905530
  75.3950063  85.8248835  56.0510876  69.1911485  82.5430449  51.2326427
  68.2661982  82.4106663  51.4404119  69.4395898  83.3224668  51.7296370
  79.1396148  78.6099192  52.8787160  78.2313025  78.5414601  52.5845921
  79.0883743  79.0871137  53.7068986  72.9612892  80.0857331  44.5170559
  72.8412517  80.5314381  45.3556040  72.2665480  80.4342648  43.9584097
  66.5520296  82.1863722  52.0670216  66.6812677  82.4398201  52.9809628
  65.8717748  82.7791430  51.7474871  70.7219784  92.8560972  48.1660690
  70.6443813  93.8068797  48.2449171  70.1181427  92.5106845  48.8235617
  73.2137013  80.0288838  60.8222057  72.4370347  80.5882758  60.8124922
  73.8527576  80.5145621  61.3436928  81.0057794  76.8115631  54.6565034
  80.3632174  77.1048164  54.0104829  80.5012723  76.6968551  55.4618231
  78.6597958  80.5578804  45.3450893  79.5715814  80.7906191  45.1698591
  78.1507605  81.1415848  44.7825972  71.4683386  82.8374291  60.3840024
  72.2098070  83.3759335  60.1074848  70.7620371  83.4640580  60.5411576
  76.9438725  84.9803432  58.9812186  77.3522081  84.5385842  58.2366818
  76.2215987  84.4056059  59.2346379  73.2969795  79.9176038  56.3545743
  74.1430991  80.3415452  56.4980392  73.2368433  79.2609663  57.0484306
  77.2667540  85.5404622  52.7364475  76.6376402  85.7050336  52.0340543
  76.8793202  85.9546232  53.5075439  81.1456772  86.4759060  50.0908839
  80.4607810  86.8557961  49.5405872  81.2300621  87.0854387  50.8240786
  76.4469241  77.5780407  58.0126916  76.2030173  78.3322467  57.4761192
  76.7229171  77.9565754  58.8474164  78.4007703  84.1219019  56.6904182
  78.6124599  84.7650779  56.0138563  78.3537452  83.2881336  56.2226112
  76.0033932  76.7336840  53.5940754  75.1418411  77.0318093  53.8857492
  76.0296367  76.9507239  52.6621787  72.8195502  85.2779030  50.0014560
  73.2833847  85.5566733  49.2119182  72.5552300  84.3762475  49.8187651
  69.7119583  84.8250512  52.9394323  70.2820940  85.2537780  52.3011808
  70.3027695  84.5433097  53.6378509  71.7564388  81.4002183  46.8104125
  72.4588431  81.8523226  47.2778051  71.4245016  80.7586002  47.4384018
  70.2044749  79.9913939  61.1855334  69.5743410  80.6730220  61.4190731
  70.0980837  79.8797021  60.2408473  65.4989722  79.6585735  52.1121259
  64.7088776  79.9143264  51.6361369  65.9900969  80.4734073  52.2173299
  79.5153531  86.9990975  54.8626539  80.3370975  86.5971162  54.5809221
  79.5115934  86.8959209  55.8142655  67.4504467  80.0230315  49.0704735
  66.6535631  80.1349009  49.5888231  67.2230059  80.3616967  48.2045626
  73.2810135  86.5475018  57.0187250  73.3454567  87.0095425  57.8545422
  72.5721059  85.9172383  57.1469560  63.7827425  79.9116226  54.5436249
  64.0335463  80.7963236  54.8093825  64.3186973  79.7320827  53.7711341
  87.6059524  83.3429723  51.2111511  86.8523233  82.7737121  51.0555515
  87.7407066  83.3092388  52.1582146  72.9958153  88.2143125  46.8866230
  72.8603827  89.0594661  47.3151078  73.5367965  88.4162403  46.1232164
  69.4825492  74.2934705  63.5480585  69.0892438  73.7400904  64.2228230
  70.2991632  74.6045284  63.9387103  66.4487550  85.7318563  47.4594155
  66.9612070  86.5261814  47.6099720  67.1010263  85.0344854  47.3927757
  68.2582435  88.8484320  49.5416908  68.4349063  89.7702284  49.3537892
  69.0539268  88.5342739  49.9711288  72.3993453  75.7092584  61.1400842
  73.1403167  76.3099737  61.0605304  72.6311376  74.9670222  60.5818885
  67.5434791  80.8948952  59.4179072  67.4288306  79.9934209  59.7186171
  66.6879309  81.1412648  59.0663888  74.6226629  88.8366692  61.0166572
  74.1790483  88.0503070  60.6987477  75.2843842  89.0245842  60.3510463
  69.3813750  90.3662493  55.5427251  69.9321175  90.2379557  54.7704245
  68.5425226  90.6657382  55.1922144  76.7207867  89.1169492  59.0447974
  76.7026342  89.9378373  58.5528243  77.6427787  88.9923567  59.2698115
  73.1780921  86.6313621  59.8871482  73.7109258  85.8701909  59.6570790
  72.6495002  86.3387273  60.6295636  76.3450616  71.7373687  55.4165124
  76.0014885  72.6275329  55.3404234  76.7129579  71.5475345  54.5534709
  64.4136467  84.0607218  48.2353726  65.2511689  84.4704226  48.0187434
  64.5914734  83.1206660  48.2053920  76.3100899  81.7282298  43.9237559
  75.7947522  82.4986903  44.1625946  76.0378207  81.0547434  44.5470620
  73.8948010  76.5731999  48.9822797  73.0389606  76.1838849  48.8028436
  74.3074962  76.6523960  48.1222583  75.4247156  74.1078342  53.3814357
  74.9211952  74.0708478  52.5682162  75.7177763  75.0171085  53.4411014
  71.6690042  74.1917072  52.3880539  72.5343039  73.9959881  52.0286428
  71.7367551  73.9627424  53.3149895  81.2835173  84.4814653  45.8590732
  80.5064616  84.1425812  45.4145894  81.9626654  84.4867276  45.1845697
  76.0987202  79.6009390  45.7497340  75.7937338  79.9155540  46.6007483
  77.0517644  79.6790810  45.7924673  74.5433634  85.7599614  47.3990294
  74.0154995  85.0252373  47.0863531  74.0421137  86.5374290  47.1530262
  79.5226480  83.9548634  52.5157340  78.8650154  84.6447896  52.6037469
  80.3266879  84.3445066  52.8591327  69.2752361  76.4219280  49.7596905
  69.8496113  76.1994461  49.0270098  69.8623344  76.4907975  50.5125507
  78.3331939  82.3093007  50.5661282  78.8463820  82.9422999  51.0682992
  78.9833163  81.7094202  50.2004642  69.6021949  78.4523741  43.7792791
  68.7659261  78.7898428  44.1002065  69.4626718  78.3172721  42.8419928
  71.5775029  73.2960529  48.4871975  70.9239441  72.9809546  47.8628590
  71.5355503  72.6736269  49.2131798  72.6886234  83.5779824  40.4025267
  71.7813296  83.3469077  40.6016416  73.1857266  82.7817443  40.5899249
  75.5954313  92.2877331  43.3221953  74.9216012  92.5909028  43.9306911
  75.9820135  93.0906412  42.9727410  74.8112770  79.7842462  52.8119623
  73.8935331  80.0057409  52.6541311  75.2272913  79.8588773  51.9531330
  75.5947817  81.1833878  47.9422303  76.3419636  81.6955275  47.6329425
  75.8639407  80.8617931  48.8026696  73.8674467  83.6792419  44.9249257
  72.9585687  83.3951452  45.0221727  73.8969551  84.0991497  44.0652564
  79.0993735  87.2899008  48.6940425  78.6456062  86.4489918  48.7505615
  78.4687702  87.9260407  49.0315205  78.0426654  78.2190994  49.9241092
  77.3049411  77.7068381  50.2551335  78.2953428  77.7791376  49.1124369
  77.5426674  89.1275505  49.6290243  77.8349648  89.6880562  48.9102608
  78.0525295  89.4204066  50.3843402  78.1438282  70.9967246  50.5182861
  78.4497159  70.1364610  50.2308776  78.8690887  71.5884867  50.3181855
  64.4362638  81.3997933  48.9064459  64.2387038  80.8067294  48.1815526
  63.8809302  81.0950143  49.6240398  72.4159361  81.2921039  51.0259052
  72.4707971  80.3394876  50.9501529  71.6050564  81.4480479  51.5100351
  73.5650555  85.2201163  42.2637336  73.1269985  84.5037021  41.8042973
  74.3060996  85.4477277  41.7022427  70.3551721  79.9098099  48.7849431
  69.5419587  80.2092270  49.1914623  70.8510716  79.5153788  49.5023914
  72.5060299  89.9055856  50.7183696  72.4636478  90.1316702  49.7892228
  73.4222998  89.6719231  50.8669497  75.9525933  80.3739924  57.6164325
  76.3075321  80.6011397  58.4758791  76.5998064  80.7058300  56.9941580
  81.6823670  83.4958360  48.3213654  81.5441569  83.6859956  47.3934843
  81.3259889  84.2577742  48.7781705  69.8465796  77.4816455  54.4010666
  70.4865175  77.3405214  53.7033630  69.0143327  77.1950968  54.0249268
  81.7093050  85.5634887  53.3324926  82.1429556  85.4710176  54.1807980
  82.4224630  85.5392387  52.6944942  70.6226100  86.7818885  50.5145659
  71.4166699  86.2869205  50.3128234  69.9117792  86.2536748  50.1513364
  75.4420945  89.1636981  54.8658026  75.4957967  89.7327917  55.6335742
  74.5735726  89.3338866  54.5012063  66.9308864  80.9261967  46.5905411
  66.0006452  80.8646422  46.8075374  67.0266336  80.4037920  45.7942053
  66.8494413  77.4516780  49.1783653  67.1101230  78.3662113  49.0692814
  67.6711585  76.9841222  49.3280266  68.3219338  78.8654537  56.3482478
  68.9942391  78.6571899  55.6995127  67.4949124  78.6676623  55.9087710
  82.5708599  85.6058587  55.8657811  82.7644489  86.5104398  56.1117086
  82.4709217  85.1466006  56.6996396  74.2244910  75.4916478  58.3648138
  73.5772825  76.1906427  58.2712615  74.9945925  75.9252622  58.7324387
  77.6323708  85.7565330  61.4398692  77.4809214  85.5275882  60.5228775
  77.6228387  86.7135931  61.4530037  74.4009044  83.3297243  56.4244958
  75.3301104  83.4808402  56.2513926  73.9800074  83.4181264  55.5693605
  73.1997376  87.3547907  54.1943496  73.0608462  86.9866692  55.0669434
  72.4111972  87.8695547  54.0227454  73.7945528  92.4557004  45.5369032
  73.9697284  91.9845047  46.3514655  73.1078316  93.0822770  45.7650293
  74.7502591  86.7329510  51.5832334  74.4152424  86.6930280  52.4789983
  74.2506537  86.0674226  51.1102744  68.7246835  82.1397140  57.1084915
  68.5866633  81.4077379  57.7096454  69.6351759  82.0506040  56.8269103
  77.6861783  84.0785544  41.8569393  77.0690953  83.3532372  41.7602446
  77.2178271  84.8394904  41.5136468  71.3529136  81.8517099  56.5968594
  72.0628754  81.2110291  56.5555213  71.3098444  82.1029994  57.5194775
  79.3415915  88.7884453  59.5175174  79.2828461  88.1043673  58.8505757
  79.7435433  89.5303443  59.0655800  70.0658070  78.8382317  58.4164234
  69.5295427  78.3873056  59.0685830  69.4774778  78.9728226  57.6734698
  68.3606613  95.6046366  52.3108893  68.6003212  96.2364891  52.9887911
  67.5175810  95.2534406  52.5974252  69.4760329  78.2970968  40.9790698
  68.5989795  78.1759769  40.6152944  69.9518082  77.5057047  40.7269586
  79.3433322  86.7524036  57.7489153  78.4560101  86.4149958  57.8715552
  79.9131873  86.0207068  57.9857919  60.9962469  83.0848128  51.0732205
  61.6833509  82.7709858  50.4853220  60.8410598  83.9889493  50.7999456
  65.7997191  77.9738325  55.5017228  65.7155380  77.3663994  54.7667638
  64.9779897  78.4647343  55.5026725  72.8734475  91.4125489  54.7150396
  72.8004647  92.2180460  55.2269701  72.4311868  91.6117455  53.8898418
  72.6624255  90.6497259  48.2253218  71.8791777  91.1918939  48.3191443
  73.3617000  91.1671238  48.6247459  75.9720905  76.4591888  50.8687423
  76.4689604  75.7061851  50.5488494  75.2007886  76.4956205  50.3030633
  83.8250662  82.1632254  52.5105715  83.8140539  83.0456969  52.1399648
  82.9568042  81.8103805  52.3160252  75.3333159  91.3112323  56.8708555
  76.0461131  91.9459788  56.7984457  74.8423187  91.4076189  56.0548557
  77.0550686  85.2163576  48.4425847  76.1206964  85.3365038  48.2730551
  77.2327354  84.3136042  48.1785857  72.5555874  78.6009271  50.5959108
  72.1853661  78.0480312  51.2840014  73.0514966  77.9967405  50.0434108
  80.4423237  81.0580895  48.9775881  80.9083689  81.8908886  48.9036184
  80.8930737  80.5925876  49.6821139  70.3845072  89.0606766  57.6914126
  71.0854532  89.6943249  57.8443520  69.9140187  89.4021498  56.9309765
  78.5099468  87.4024716  45.9762033  78.7859312  87.2881311  46.8855907
  77.6403967  87.0042201  45.9374206  78.4139900  73.4261482  53.0166782
  77.5002980  73.6565709  53.1848989  78.8433001  73.5099926  53.8680815
  78.1846358  81.6151374  55.5166676  77.5317808  81.8627281  54.8619129
  78.5626738  80.8015512  55.1829154  75.1453532  91.6511067  49.6194847
  75.3275927  90.8332723  50.0822599  75.9686518  91.8678759  49.1819737
  75.4795698  90.5779252  46.8809895  76.0083464  90.0671707  46.2680057
  75.7423917  90.2621782  47.7455428  74.2333931  82.3571185  62.0032713
  73.5574568  82.2565314  62.6735089  75.0561565  82.2010399  62.4668711
  65.9812790  88.5943121  54.6245229  66.5666227  87.8486809  54.7573133
  65.7837629  88.9047078  55.5081893  68.8351446  91.6294369  49.6407671
  68.1661821  92.1140496  49.1571711  68.6964315  91.8763589  50.5551050
  60.5730445  81.1648722  53.3449672  60.6114545  80.6312312  54.1386790
  60.0670738  80.6383927  52.7260649  72.9756714  93.6638112  56.2390329
  73.5275022  93.8269734  57.0039415  73.3162908  94.2542550  55.5670354
  67.9521207  76.0113262  56.8412214  68.0162534  76.8728093  56.4289612
  67.8888328  75.3987264  56.1084573  67.4273480  78.0836395  60.4885248
  68.0545519  77.7013472  61.1022773  66.5701399  77.8650597  60.8540941
  77.8267588  88.4899370  62.0938984  78.3707492  89.1029328  61.5993939
  77.2454433  89.0478948  62.6105997  64.2039023  79.8912824  46.4203603
  64.4992464  78.9823502  46.3670657  63.3027058  79.8700563  46.0984606
  76.1125101  91.6120088  53.2254012  75.9876241  90.8109828  52.7164957
  76.7704192  92.1066281  52.7367982  67.7333270  77.9668820  52.4031152
  67.0119855  78.5804788  52.2638625  68.5226525  78.5026585  52.3247798
  78.1760010  89.4129108  54.8533562  77.2290345  89.2934459  54.7811888
  78.5242783  88.5251606  54.9359823  70.5359583  75.3023247  58.6771804
  71.0593985  75.5485543  59.4398113  70.3171916  76.1343282  58.2574941
  65.9326864  77.5726921  46.5442928  65.6039570  76.6924300  46.3618034
  66.2866235  77.5174590  47.4319318  75.1806443  89.2081824  51.0537914
  75.0331405  88.2798532  51.2345484  76.0059937  89.2301915  50.5694989
  69.0468687  77.8599891  46.9118406  69.3864760  78.3885812  46.1897014
  69.4940808  78.1980297  47.6876973  78.7840565  90.0310383  52.1402787
  79.7087112  89.8253244  52.0027238  78.6155868  89.7826784  53.0492128
  71.7412128  76.2436942  56.3621474  71.4008949  75.4444755  56.7642154
  71.0351134  76.5438653  55.7898307  72.3928600  73.3286254  54.8148797
  73.2154669  72.8546733  54.6927687  72.6366664  74.1076738  55.3147483
  71.0336835  76.3574513  45.1111699  71.7545197  76.7355766  44.6075416
  70.4102139  77.0763390  45.2146677  75.1767957  77.0619662  46.0470031
  75.3931572  77.9444300  45.7458859  74.6962025  76.6705875  45.3175673
  69.9167179  80.0205375  52.6240776  69.7711759  80.3345678  53.5165057
  69.4392382  80.6390275  52.0711674  71.7763562  77.0107923  52.6721665
  71.7625130  76.1149016  52.3353963  72.4935990  77.0178587  53.3059951
  73.6289692  77.4445263  54.7174793  73.3707470  78.3662334  54.7159123
  73.0974733  77.0475698  55.4075257  78.5735881  90.5496050  47.4964878
  78.7472759  89.9842473  46.7438731  79.0664772  91.3496945  47.3144368
  64.3912841  82.5610719  55.5628437  63.8466309  83.3370527  55.6948711
  65.2692191  82.9081524  55.4047558  71.1800458  75.8922303  47.9409235
  71.3016369  74.9638949  48.1400123  70.8902500  75.9060989  47.0287551
  74.0491648  73.5777214  51.0775955  74.0713345  73.6416547  50.1227935
  74.4659707  72.7381722  51.2716461  84.4275272  83.3132473  49.1155178
  84.8706418  82.5639798  48.7174301  83.5501783  83.3042610  48.7328910
  79.5611054  89.8662815  44.5961776  80.2561958  90.4869507  44.8149091
  79.9034204  89.0158166  44.8714154  65.1778863  81.6880616  58.4558594
  64.4360599  81.8363251  59.0423224  64.8571607  81.9488881  57.5925343
  81.4602477  87.3162520  46.1249107  81.9853801  87.6549793  45.3998427
  81.3724829  86.3809536  45.9412242  73.1222525  91.2296594  58.2538984
  73.4309652  90.9845741  59.1261683  73.9198007  91.4343232  57.7657854
  73.1443137  93.3834503  50.4844360  72.7048128  92.8910882  51.1777217
  73.8951254  92.8407471  50.2436436  65.6235476  89.5746044  50.4868988
  66.4493496  89.2749816  50.1067632  65.2729528  88.8053667  50.9358777
  70.5917010  88.9272513  52.5566662  69.9697019  88.2643218  52.2568890
  71.2621877  88.9533644  51.8740310  63.8244082  87.4932371  51.4457922
  62.9875990  87.0654545  51.2641923  63.7967727  87.6864814  52.3828713
  70.6641537  77.4054301  62.1499168  70.7129693  78.2816423  61.7676938
  71.2064051  76.8631694  61.5770811  81.1496383  87.9495424  61.4300305
  80.3591927  87.9319563  60.8904805  80.9129737  88.4883718  62.1849342
  81.2694258  84.7987890  58.7433034  81.3192263  84.6337898  59.6848556
  81.1608181  83.9315149  58.3530914  70.1530517  87.4776436  46.0325123
  70.3018637  88.1611900  45.3791795  70.9596960  87.4581526  46.5474578
  78.5598020  80.7818818  60.0592340  79.4607883  80.6425283  59.7676338
  78.6345995  80.9473273  60.9990518  72.8940826  78.1585673  58.9045527
  72.0244135  78.4519239  58.6328115  73.1300306  78.7426118  59.6252790
  82.7712455  87.2184832  58.9875055  82.4797263  87.5814812  59.8238516
  82.1584586  86.5051840  58.8088387  83.9708137  84.7837712  51.5077625
  84.8055028  85.2227516  51.6715186  84.1067266  84.3076365  50.6885871
  81.0199643  82.3417446  57.4555113  81.4953765  82.5345093  56.6473965
  80.0965208  82.3976632  57.2098497  67.9083150  83.5041614  47.0386191
  67.6629191  82.6003944  47.2366402  68.0779064  83.5058764  46.0965669
  75.5979859  74.3765290  56.4210947  76.1161803  75.1126317  56.0957436
  75.2434992  74.6829283  57.2557706  67.1778797  79.2369971  44.5372353
  66.4848042  79.3114326  43.8812389  66.9330549  78.4730315  45.0593870
  75.8492454  70.7965572  51.9411844  76.1294207  70.1288762  52.5672270
  76.6343060  70.9894668  51.4286507  73.6525922  89.9724566  43.5036870
  73.0799889  90.5914753  43.0507342  74.2258716  90.5223928  44.0376792
  79.7201312  79.2183206  55.6883419  80.6718735  79.3181304  55.7095643
  79.5504762  78.4261475  56.1981503  77.7415691  76.3038790  55.8742820
  77.1465623  76.5843802  55.1789308  77.4565388  76.7932691  56.6459561
  76.8723182  90.2561716  44.6345452  77.8053855  90.1907278  44.8378328
  76.7846395  91.0917983  44.1759985  79.5011199  89.5727587  41.5949400
  79.4224830  89.2387450  42.4885158  80.3220865  90.0649355  41.5940872
  82.1989390  82.4389326  54.8025718  82.1665710  81.5005327  54.9885402
  82.8090013  82.5173363  54.0691543  74.0372721  81.3085379  40.8452922
  74.9831825  81.1791587  40.9141340  73.6586966  80.5700041  41.3222351
  82.3483878  79.2300370  54.8484002  81.8322927  78.4458826  54.6613930
  83.2323827  78.9019086  55.0130521  80.0094605  72.9741385  50.8079814
  79.8119426  72.6656473  51.6923146  80.6194311  73.7003024  50.9377744
  88.0165940  83.5005333  53.9431755  88.7469328  83.2390621  54.5039459
  87.4072885  82.7634055  53.9833823  86.0981237  81.6413196  54.5406206
  85.3714400  81.5069161  53.9322698  85.6828524  81.9490024  55.3462924
  73.9211413  85.3603125  62.3053579  74.8414423  85.5381724  62.4993626
  73.8860996  84.4159171  62.1533279  72.2215638  79.2335356  40.7807808
  71.3147093  78.9368468  40.8570521  72.4991619  78.9365174  39.9142094
  63.1393578  80.5541719  51.2306854  62.8196362  79.7007027  50.9381228
  62.5927006  80.7690297  51.9864821  66.9173486  83.2704160  54.9476361
  67.1359495  84.2021268  54.9664394  67.3299259  82.9112134  55.7331164
  73.8377703  73.7772245  46.9352049  73.0278432  73.4319330  47.3107295
  74.5262120  73.4679789  47.5239661  75.7668252  72.8550292  48.5576346
  76.3199290  73.2745745  49.2166369  76.0038338  71.9286040  48.5999302
  71.7901351  78.8437366  64.3379110  71.6898078  79.7931723  64.2691201
  71.5722893  78.5155605  63.4655180  70.9914422  76.0922291  40.9219787
  71.8533586  76.4177189  41.1815604  71.1764766  75.3053787  40.4092853
  63.0081838  84.1744630  53.1999976  62.3145310  83.7598583  52.6869930
  63.7554829  84.2165167  52.6033395  79.1447059  74.9650817  48.0655010
  78.5645728  75.6235621  47.6833062  78.8782992  74.1428162  47.6542427
  77.5950625  74.3655875  50.2676330  78.0950404  74.4772409  49.4590649
  78.2386233  74.0616928  50.9077139  71.6532621  82.2734505  63.1544171
  71.1699703  83.0734865  63.3608060  71.7393560  82.2842449  62.2011615
  64.9218581  84.1062884  51.0765991  64.8989269  84.2050571  50.1247874
  65.2319217  84.9528035  51.3983157  67.5805959  86.1639039  55.1912605
  68.5349212  86.1322982  55.1242537  67.3818482  85.7029663  56.0062831
  68.1705341  84.7340155  57.7583403  68.9898230  85.2284234  57.7818240
  68.4442148  83.8172123  57.7300970  77.9271937  77.1250908  47.1211358
  77.0397792  77.4100558  46.9031553  78.3425926  76.9644671  46.2738635
  81.2786473  77.1497429  50.8365697  82.0546863  77.6393881  51.1090314
  80.5534607  77.5755483  51.2937567  83.7159032  77.8625048  51.8939638
  84.3103522  77.6220784  51.1832946  83.7885615  77.1432178  52.5213174
  65.9356187  91.7058659  52.2082803  65.8010655  90.9459060  51.6420801
  65.5188250  92.4299559  51.7411592  77.0715150  86.8895582  41.2159378
  77.7751000  87.0945585  41.8317034  76.3477799  87.4572344  41.4808462
  77.9012961  82.6405443  47.3361648  77.8448162  83.0973995  46.4969281
  78.4541303  81.8796128  47.1584491  81.7117766  78.4295175  48.1611768
  81.4554701  78.0291811  48.9919975  81.0870635  79.1438969  48.0361907
  86.0230104  81.1691249  50.6683059  85.4629662  81.2384438  51.4414621
  85.4173608  80.9932233  49.9482555  69.0925313  92.6027976  52.4201245
  68.9757697  93.5473408  52.3179936  68.2717759  92.3001537  52.8087045
  78.9801848  87.3278111  43.2657838  79.8147452  86.8959310  43.0835313
  78.8186191  87.1560125  44.1934733  78.6347740  83.8310225  44.6314177
  78.5796544  83.6654496  43.6902622  78.0093795  84.5386258  44.7876367
  63.4240255  79.0678289  58.4575600  64.0699118  78.5577243  58.9462825
  63.2157406  79.8046971  59.0319025  75.9493647  86.1359137  63.9567740
  76.8184807  86.3099789  63.5954375  75.4700399  86.9553553  63.8343470
  71.9443865  73.3318334  44.2099496  71.9322535  74.2760174  44.3667767
  72.8367287  73.1488479  43.9158957  70.1179827  93.2556238  55.6357174
  71.0207074  93.2879848  55.9523669  69.8917197  92.3256689  55.6503510
  71.8733429  92.0087224  52.2967253  70.9229060  92.0089086  52.1831625
  72.1765915  91.2619959  51.7803287  75.7595985  69.9261110  48.4645433
  74.9928381  69.3719597  48.6102115  76.1706690  69.9982979  49.3259584
  67.7637746  76.2145906  62.5550614  68.6269207  75.8582711  62.7653938
  67.1903157  75.8759801  63.2426018  87.6086123  97.8447763  53.3613015
  88.2464533  97.7254510  52.6576355  87.4906966  98.7928606  53.4200967
  84.4175829  97.7975191  53.2974540  84.0794341  97.6816255  52.4095074
  85.2865597  97.3966356  53.2775546  80.2762645  99.6510667  49.2871431
  79.7127510  99.5600604  48.5187718  80.1615040  98.8310572  49.7673923
  84.8995612  98.9510042  59.2560745  84.8884253  98.5562841  58.3841249
  85.0616252  98.2176115  59.8494517  77.8227077 101.1461859  52.1255651
  78.6148369 100.8052683  51.7101950  78.0623727 101.2556834  53.0457804
  79.7817831 100.4070772  44.9973030  80.5548707  99.8599759  44.8585906
  80.1343230 101.2715021  45.2087491  81.6202873 101.7347154  58.2039929
  81.3292739 102.6392785  58.0886595  82.2559858 101.7763682  58.9183999
  82.5459080  99.1124003  54.7941289  83.1422652  98.8880025  54.0798252
  82.6034052  98.3708748  55.3966737  82.1184108  96.5663438  42.6291480
  82.3709629  96.0444959  41.8674943  81.1808668  96.4029583  42.7318163
  87.1627391  95.5699216  50.4366223  87.9490481  95.1518640  50.0856640
  87.4266096  96.4745309  50.6047871  92.5635818  95.5074450  51.3399201
  93.2960990  94.9373666  51.5737031  91.8075174  95.1196050  51.7805707
  81.8380397  98.4691544  44.8315855  81.7216655  97.7936447  45.4996939
  81.9482657  97.9823918  44.0148008  84.1811938  97.9301691  48.5362544
  83.8170145  97.4032312  49.2475465  85.0379054  97.5400160  48.3629029
  90.0861239  89.2196024  55.7993810  89.7544564  90.0891435  55.5755025
  89.4906852  88.9032308  56.4787840  83.8217425  92.9591591  43.5323892
  83.9891827  93.8271827  43.8994363  83.6314594  93.1218872  42.6085182
  80.0305240  97.8722367  51.2326427  79.1055736  97.7398581  51.4404119
  80.2789653  98.6516586  51.7296370  89.9789902  93.9391110  52.8787160
  89.0706779  93.8706518  52.5845921  89.9277498  94.4163055  53.7068986
  83.8006646  95.4149248  44.5170559  83.6806271  95.8606299  45.3556040
  83.1059234  95.7634566  43.9584097  77.3914051  97.5155640  52.0670216
  77.5206432  97.7690119  52.9809628  76.7111502  98.1083348  51.7474871
  84.0530768  95.3580755  60.8222057  83.2764102  95.9174676  60.8124922
  84.6921331  95.8437538  61.3436928  91.8451548  92.1407548  54.6565034
  91.2025929  92.4340081  54.0104829  91.3406477  92.0260469  55.4618231
  89.4991712  95.8870721  45.3450893  90.4109568  96.1198108  45.1698591
  88.9901359  96.4707766  44.7825972  82.3077140  98.1666209  60.3840024
  83.0491825  98.7051253  60.1074848  81.6014126  98.7932498  60.5411576
  84.1363550  95.2467956  56.3545743  84.9824745  95.6707370  56.4980392
  84.0762188  94.5901580  57.0484306  87.2862995  92.9072324  58.0126916
  87.0423927  93.6614385  57.4761192  87.5622926  93.2857672  58.8474164
  86.8427687  92.0628757  53.5940754  85.9812166  92.3610011  53.8857492
  86.8690122  92.2799156  52.6621787  83.6589256 100.6070948  50.0014560
  84.1227602 100.8858651  49.2119182  83.3946054  99.7054393  49.8187651
  80.5513337 100.1542430  52.9394323  81.1214694 100.5829698  52.3011808
  81.1421449  99.8725014  53.6378509  82.5958142  96.7294100  46.8104125
  83.2982186  97.1815144  47.2778051  82.2638771  96.0877919  47.4384018
  81.0438504  95.3205857  61.1855334  80.4137164  96.0022138  61.4190731
  80.9374592  95.2088939  60.2408473  76.3383476  94.9877653  52.1121259
  75.5482530  95.2435182  51.6361369  76.8294724  95.8025991  52.2173299
  78.2898222  95.3522232  49.0704735  77.4929385  95.4640927  49.5888231
  78.0623814  95.6908885  48.2045626  74.6221179  95.2408143  54.5436249
  74.8729218  96.1255153  54.8093825  75.1580728  95.0612745  53.7711341
  80.3219247  89.6226623  63.5480585  79.9286192  89.0692821  64.2228230
  81.1385387  89.9337201  63.9387103  77.2881304 101.0610481  47.4594155
  77.8005825 101.8553731  47.6099720  77.9404017 100.3636771  47.3927757
  79.0976189 104.1776237  49.5416908  79.2742817 105.0994202  49.3537892
  79.8933023 103.8634657  49.9711288  83.2387208  91.0384502  61.1400842
  83.9796921  91.6391655  61.0605304  83.4705130  90.2962140  60.5818885
  78.3828546  96.2240869  59.4179072  78.2682061  95.3226126  59.7186171
  77.5273063  96.4704566  59.0663888  84.0174676 101.9605539  59.8871482
  84.5503012 101.1993827  59.6570790  83.4888757 101.6679191  60.6295636
  87.1844371  87.0665605  55.4165124  86.8408640  87.9567247  55.3404234
  87.5523333  86.8767263  54.5534709  75.2530221  99.3899135  48.2353726
  76.0905443  99.7996144  48.0187434  75.4308489  98.4498577  48.2053920
  87.1494653  97.0574216  43.9237559  86.6341277  97.8278821  44.1625946
  86.8771962  96.3839352  44.5470620  84.7341764  91.9023917  48.9822797
  83.8783361  91.5130767  48.8028436  85.1468716  91.9815878  48.1222583
  86.2640911  89.4370260  53.3814357  85.7605707  89.4000395  52.5682162
  86.5571518  90.3463003  53.4411014  82.5083797  89.5208990  52.3880539
  83.3736794  89.3251798  52.0286428  82.5761306  89.2919342  53.3149895
  86.9380956  94.9301308  45.7497340  86.6331092  95.2447457  46.6007483
  87.8911399  95.0082728  45.7924673  80.1146116  91.7511198  49.7596905
  80.6889868  91.5286379  49.0270098  80.7017098  91.8199892  50.5125507
  89.1725693  97.6384925  50.5661282  89.6857575  98.2714916  51.0682992
  89.8226917  97.0386120  50.2004642  80.4415703  93.7815659  43.7792791
  79.6053015  94.1190345  44.1002065  80.3020473  93.6464638  42.8419928
  82.4168784  88.6252447  48.4871975  81.7633196  88.3101464  47.8628590
  82.3749258  88.0028187  49.2131798  83.5279988  98.9071742  40.4025267
  82.6207050  98.6760995  40.6016416  84.0251020  98.1109361  40.5899249
  85.6506524  95.1134380  52.8119623  84.7329085  95.3349327  52.6541311
  86.0666668  95.1880691  51.9531330  86.4341572  96.5125796  47.9422303
  87.1813391  97.0247193  47.6329425  86.7033161  96.1909849  48.8026696
  84.7068222  99.0084337  44.9249257  83.7979441  98.7243369  45.0221727
  84.7363306  99.4283415  44.0652564  88.8820409  93.5482912  49.9241092
  88.1443166  93.0360298  50.2551335  89.1347182  93.1083294  49.1124369
  88.9832036  86.3259164  50.5182861  89.2890913  85.4656527  50.2308776
  89.7084641  86.9176784  50.3181855  75.2756392  96.7289851  48.9064459
  75.0780792  96.1359211  48.1815526  74.7203056  96.4242061  49.6240398
  83.2553116  96.6212957  51.0259052  83.3101726  95.6686794  50.9501529
  82.4444318  96.7772396  51.5100351  84.4044310 100.5493080  42.2637336
  83.9663740  99.8328939  41.8042973  85.1454751 100.7769195  41.7022427
  81.1945476  95.2390017  48.7849431  80.3813341  95.5384187  49.1914623
  81.6904470  94.8445706  49.5023914  86.7919688  95.7031841  57.6164325
  87.1469075  95.9303314  58.4758791  87.4391819  96.0350218  56.9941580
  80.6859551  92.8108372  54.4010666  81.3258930  92.6697131  53.7033630
  79.8537081  92.5242886  54.0249268  81.4619855 102.1110803  50.5145659
  82.2560453 101.6161123  50.3128234  80.7511547 101.5828666  50.1513364
  77.7702618  96.2553885  46.5905411  76.8400206  96.1938340  46.8075374
  77.8660090  95.7329837  45.7942053  77.6888167  92.7808697  49.1783653
  77.9494984  93.6954031  49.0692814  78.5105339  92.3133140  49.3280266
  79.1613092  94.1946455  56.3482478  79.8336146  93.9863817  55.6995127
  78.3342879  93.9968541  55.9087710  85.0638664  90.8208395  58.3648138
  84.4166579  91.5198345  58.2712615  85.8339680  91.2544539  58.7324387
  85.2402799  98.6589160  56.4244958  86.1694859  98.8100320  56.2513926
  84.8193829  98.7473181  55.5693605  79.5640590  97.4689058  57.1084915
  79.4260388  96.7369296  57.7096454  80.4745513  97.3797958  56.8269103
  82.1922890  97.1809017  56.5968594  82.9022509  96.5402209  56.5555213
  82.1492198  97.4321912  57.5194775  80.9051824  94.1674235  58.4164234
  80.3689181  93.7164973  59.0685830  80.3168533  94.3020144  57.6734698
  80.3154083  93.6262886  40.9790698  79.4383550  93.5051687  40.6152944
  80.7911836  92.8348964  40.7269586  71.8356223  98.4140046  51.0732205
  72.5227263  98.1001776  50.4853220  71.6804352  99.3181411  50.7999456
  76.6390946  93.3030242  55.5017228  76.5549134  92.6955912  54.7667638
  75.8173652  93.7939261  55.5026725  86.8114659  91.7883806  50.8687423
  87.3083359  91.0353768  50.5488494  86.0401641  91.8248123  50.3030633
  83.3949628  93.9301189  50.5959108  83.0247416  93.3772229  51.2840014
  83.8908721  93.3259322  50.0434108  89.2533654  88.7553399  53.0166782
  88.3396734  88.9857626  53.1848989  89.6826756  88.8391844  53.8680815
  89.0240113  96.9443291  55.5166676  88.3711563  97.1919199  54.8619129
  89.4020493  96.1307430  55.1829154  85.0727686  97.6863102  62.0032713
  84.3968323  97.5857232  62.6735089  85.8955320  97.5302316  62.4668711
  76.8206545 103.9235039  54.6245229  77.4059982 103.1778727  54.7573133
  76.6231383 104.2338996  55.5081893  71.4124200  96.4940639  53.3449672
  71.4508299  95.9604230  54.1386790  70.9064492  95.9675845  52.7260649
  78.7914962  91.3405180  56.8412214  78.8556288  92.2020011  56.4289612
  78.7282082  90.7279181  56.1084573  78.2667234  93.4128312  60.4885248
  78.8939273  93.0305390  61.1022773  77.4095153  93.1942514  60.8540941
  75.0432777  95.2204741  46.4203603  75.3386218  94.3115420  46.3670657
  74.1420813  95.1992481  46.0984606  78.5727024  93.2960738  52.4031152
  77.8513610  93.9096706  52.2638625  79.3620280  93.8318503  52.3247798
  81.3753338  90.6315164  58.6771804  81.8987739  90.8777461  59.4398113
  81.1565671  91.4635199  58.2574941  76.7720619  92.9018839  46.5442928
  76.4433325  92.0216218  46.3618034  77.1259989  92.8466508  47.4319318
  79.8862442  93.1891809  46.9118406  80.2258514  93.7177730  46.1897014
  80.3334562  93.5272215  47.6876973  82.5805883  91.5728860  56.3621474
  82.2402703  90.7736673  56.7642154  81.8744889  91.8730570  55.7898307
  83.2322354  88.6578172  54.8148797  84.0548424  88.1838650  54.6927687
  83.4760418  89.4368656  55.3147483  81.8730589  91.6866430  45.1111699
  82.5938951  92.0647683  44.6075416  81.2495893  92.4055307  45.2146677
  86.0161712  92.3911579  46.0470031  86.2325326  93.2736217  45.7458859
  85.5355779  91.9997793  45.3175673  80.7560933  95.3497293  52.6240776
  80.6105514  95.6637596  53.5165057  80.2786137  95.9682193  52.0711674
  82.6157316  92.3399841  52.6721665  82.6018885  91.4440934  52.3353963
  83.3329744  92.3470504  53.3059951  84.4683447  92.7737181  54.7174793
  84.2101225  93.6954251  54.7159123  83.9368487  92.3767615  55.4075257
  75.2306595  97.8902637  55.5628437  74.6860063  98.6662445  55.6948711
  76.1085945  98.2373442  55.4047558  82.0194212  91.2214221  47.9409235
  82.1410123  90.2930867  48.1400123  81.7296254  91.2352907  47.0287551
  84.8885402  88.9069131  51.0775955  84.9107099  88.9708464  50.1227935
  85.3053461  88.0673640  51.2716461  76.0172617  97.0172533  58.4558594
  75.2754353  97.1655169  59.0423224  75.6965362  97.2780799  57.5925343
  76.4629231 104.9037962  50.4868988  77.2887251 104.6041734  50.1067632
  76.1123283 104.1345584  50.9358777  74.6637836 102.8224288  51.4457922
  73.8269744 102.3946463  51.2641923  74.6361481 103.0156732  52.3828713
  81.5035292  92.7346218  62.1499168  81.5523447  93.6108341  61.7676938
  82.0457806  92.1923611  61.5770811  80.9924271 102.8068354  46.0325123
  81.1412391 103.4903818  45.3791795  81.7990714 102.7873444  46.5474578
  89.3991775  96.1110736  60.0592340  90.3001637  95.9717201  59.7676338
  89.4739749  96.2765191  60.9990518  83.7334580  93.4877591  58.9045527
  82.8637889  93.7811157  58.6328115  83.9694060  94.0718036  59.6252790
  78.7476904  98.8333531  47.0386191  78.5022946  97.9295861  47.2366402
  78.9172819  98.8350682  46.0965669  86.4373614  89.7057208  56.4210947
  86.9555558  90.4418235  56.0957436  86.0828747  90.0121201  57.2557706
  78.0172552  94.5661889  44.5372353  77.3241796  94.6406244  43.8812389
  77.7724303  93.8022232  45.0593870  86.6886208  86.1257490  51.9411844
  86.9687962  85.4580679  52.5672270  87.4736815  86.3186586  51.4286507
  90.5595066  94.5475124  55.6883419  91.5112489  94.6473222  55.7095643
  90.3898517  93.7553393  56.1981503  88.5809446  91.6330707  55.8742820
  87.9859378  91.9135720  55.1789308  88.2959143  92.1224608  56.6459561
  84.8766475  96.6377297  40.8452922  85.8225580  96.5083505  40.9141340
  84.4980720  95.8991959  41.3222351  93.1877633  94.5592287  54.8484002
  92.6716681  93.7750744  54.6613930  94.0717581  94.2311004  55.0130521
  90.8488360  88.3033303  50.8079814  90.6513181  87.9948391  51.6923146
  91.4588065  89.0294942  50.9377744  84.7605168 100.6895043  62.3053579
  85.6808177 100.8673642  62.4993626  84.7254751  99.7451088  62.1533279
  83.0609392  94.5627273  40.7807808  82.1540848  94.2660386  40.8570521
  83.3385373  94.2657091  39.9142094  73.9787333  95.8833637  51.2306854
  73.6590117  95.0298945  50.9381228  73.4320761  96.0982215  51.9864821
  77.7567240  98.5996078  54.9476361  77.9753250  99.5313185  54.9664394
  78.1693014  98.2404052  55.7331164  84.6771458  89.1064163  46.9352049
  83.8672186  88.7611248  47.3107295  85.3655875  88.7971707  47.5239661
  86.6062006  88.1842210  48.5576346  87.1593045  88.6037663  49.2166369
  86.8432093  87.2577958  48.5999302  82.6295105  94.1729283  64.3379110
  82.5291832  95.1223640  64.2691201  82.4116647  93.8447522  63.4655180
  81.8308177  91.4214208  40.9219787  82.6927341  91.7469107  41.1815604
  82.0158521  90.6345704  40.4092853  73.8475593  99.5036548  53.1999976
  73.1539064  99.0890501  52.6869930  74.5948584  99.5457085  52.6033395
  89.9840813  90.2942735  48.0655010  89.4039482  90.9527539  47.6833062
  89.7176746  89.4720079  47.6542427  88.4344380  89.6947793  50.2676330
  88.9344158  89.8064327  49.4590649  89.0779988  89.3908845  50.9077139
  82.4926376  97.6026422  63.1544171  82.0093457  98.4026782  63.3608060
  82.5787315  97.6134367  62.2011615  75.7612335  99.4354802  51.0765991
  75.7383023  99.5342489  50.1247874  76.0712972 100.2819953  51.3983157
  78.4199713 101.4930957  55.1912605  79.3742967 101.4614899  55.1242537
  78.2212237 101.0321581  56.0062831  79.0099095 100.0632073  57.7583403
  79.8291984 100.5576152  57.7818240  79.2835903  99.1464041  57.7300970
  88.7665691  92.4542825  47.1211358  87.8791546  92.7392476  46.9031553
  89.1819680  92.2936589  46.2738635  92.1180227  92.4789346  50.8365697
  92.8940618  92.9685799  51.1090314  91.3928362  92.9047400  51.2937567
  94.5552786  93.1916965  51.8939638  95.1497277  92.9512701  51.1832946
  94.6279370  92.4724096  52.5213174  76.7749942 107.0350576  52.2082803
  76.6404410 106.2750977  51.6420801  76.3582004 107.7591476  51.7411592
  88.7406715  97.9697361  47.3361648  88.6841916  98.4265913  46.4969281
  89.2935058  97.2088046  47.1584491  92.5511521  93.7587093  48.1611768
  92.2948455  93.3583729  48.9919975  91.9264389  94.4730887  48.0361907
  74.2634009  94.3970207  58.4575600  74.9092873  93.8869161  58.9462825
  74.0551160  95.1338888  59.0319025  82.7837620  88.6610251  44.2099496
  82.7716290  89.6052091  44.3667767  83.6761042  88.4780397  43.9158957
  86.5989739  85.2553028  48.4645433  85.8322135  84.7011515  48.6102115
  87.0100444  85.3274897  49.3259584  78.6031500  91.5437824  62.5550614
  79.4662962  91.1874629  62.7653938  78.0296911  91.2051719  63.2426018
  33.4117352  -1.7949703  40.0858322  34.0495762  -1.9142956  39.3821662
  33.2938195  -0.8468859  40.1446274  30.2207058  -1.8422275  40.0219846
  29.8825569  -1.9581210  39.1340381  31.0896826  -2.2431110  40.0020852
  26.0793874   0.0113201  36.0116737  25.5158739  -0.0796862  35.2433025
  25.9646269  -0.8086894  36.4919230  30.7026841  -0.6887423  45.9806052
  30.6915482  -1.0834625  45.1086555  30.8647480  -1.4221351  46.5739823
  23.6258306   1.5064393  38.8500958  24.4179597   1.1655218  38.4347257
  23.8654956   1.6159368  39.7703111  31.6593432   3.6784169  31.3231202
  31.0081412   4.2638249  30.9365216  32.4537795   4.2090364  31.3826240
  25.5849059   0.7673306  31.7218336  26.3579935   0.2202293  31.5831212
  25.9374458   1.6317555  31.9332798  27.4234102   2.0949688  44.9285236
  27.1323968   2.9995319  44.8131902  28.0591086   2.1366216  45.6429305
  28.3490309  -0.5273463  41.5186595  28.9453881  -0.7517441  40.8043558
  28.4065280  -1.2688718  42.1212043  32.9658620  -4.0698249  37.1611530
  33.7521709  -4.4878826  36.8101947  33.2297324  -3.1652157  37.3293178
  33.1368697   1.3674601  31.8600186  32.5014530   1.4409227  32.5721091
  32.8066104   1.9568200  31.1819266  38.3667047  -4.1323016  38.0644508
  39.0992219  -4.7023799  38.2982338  37.6106403  -4.5201416  38.5051014
  27.6411626  -1.1705922  31.5561161  27.5247884  -1.8461018  32.2242246
  27.7513886  -1.6573548  30.7393314  29.9843167  -1.7095775  35.2607851
  29.6201374  -2.2365154  35.9720772  30.8410283  -2.0997306  35.0874336
  32.3823987   1.7811104  41.9235029  32.0824710   2.6836143  41.8150837
  32.0375047   1.5143287  42.7756182  35.7821131  -5.7006356  39.6032467
  34.8738008  -5.7690947  39.3091228  35.7308727  -5.2234411  40.4314292
  29.6037875  -4.2248218  31.2415866  29.4837500  -3.7791167  32.0801346
  28.9090463  -3.8762900  30.6829404  27.3644767   8.5455424  34.8905997
  27.2868797   9.4963249  34.9694478  26.7606410   8.2001297  35.5480923
  29.8561997  -4.2816710  47.5467364  29.0795331  -3.7222790  47.5370229
  30.4952560  -3.7959927  48.0682234  37.6482777  -7.4989918  41.3810341
  37.0057158  -7.2057384  40.7350135  37.1437706  -7.6136997  42.1863537
  35.3022941  -3.7526744  32.0696200  36.2140797  -3.5199358  31.8943897
  34.7932588  -3.1689700  31.5071279  28.1108369  -1.4731257  47.1085331
  28.8523053  -0.9346213  46.8320155  27.4045354  -0.8464968  47.2656883
  33.5863709   0.6697884  45.7057493  33.9947065   0.2280294  44.9612125
  32.8640970   0.0950511  45.9591685  29.9394779  -4.3929510  43.0791049
  30.7855974  -3.9690096  43.2225698  29.8793416  -5.0495885  43.7729613
  33.9092523   1.2299074  39.4609781  33.2801386   1.3944788  38.7585849
  33.5218185   1.6440684  40.2320745  37.7881755   2.1653512  36.8154145
  37.1032793   2.5452413  36.2651178  37.8725604   2.7748839  37.5486093
  33.0894224  -6.7325141  44.7372223  32.8455156  -5.9783081  44.2006499
  33.3654155  -6.3539794  45.5719470  35.0432687  -0.1886529  43.4149489
  35.2549582   0.4545231  42.7383870  34.9962435  -1.0224212  42.9471419
  29.4620485   0.9673482  36.7259867  29.9258831   1.2461185  35.9364489
  29.1977283   0.0656927  36.5432957  26.3544566   0.5144964  39.6639630
  26.9245923   0.9432232  39.0257114  26.9452678   0.2327548  40.3623815
  28.3989371  -2.9103365  33.5349432  29.1013415  -2.4582322  34.0023358
  28.0670000  -3.5519547  34.1629325  36.1578515   2.6885426  41.5871846
  36.9795958   2.2865614  41.3054528  36.1540918   2.5853661  42.5387962
  29.9235118   2.2369470  43.7432557  29.9879551   2.6989877  44.5790728
  29.2146042   1.6066835  43.8714866  44.2484508  -0.9675825  37.9356818
  43.4948216  -1.5368427  37.7800822  44.3832049  -1.0013161  38.8827452
  29.6383136   3.9037577  33.6111537  29.5028811   4.7489113  34.0396385
  30.1792948   4.1056855  32.8477471  23.0912533   1.4213015  34.1839462
  23.6037054   2.2156266  34.3345027  23.7435246   0.7239306  34.1173063
  24.9007418   4.5378772  36.2662215  25.0774046   5.4596736  36.0783199
  25.6964251   4.2237191  36.6956595  31.2651612   4.5261144  47.7411879
  30.8215466   3.7397522  47.4232783  31.9268826   4.7140294  47.0755770
  26.0238733   6.0556945  42.2672557  26.5746158   5.9274009  41.4949551
  25.1850209   6.3551834  41.9167450  33.3632850   4.8063944  45.7693280
  33.3451326   5.6272825  45.2773549  34.2852770   4.6818019  45.9943421
  29.8205904   2.3208073  46.6116789  30.3534241   1.5596361  46.3816097
  29.2919986   2.0281725  47.3540943  32.9525882  -2.5823250  30.6482865
  32.4372506  -1.8118645  30.8871253  32.6803191  -3.2558114  31.2715927
  37.9260156   0.1709105  32.5836039  37.1489599  -0.1679736  32.1391201
  38.6051637   0.1761728  31.9091004  32.7412185  -4.7096158  32.4742647
  32.4362321  -4.3950009  33.3252790  33.6942627  -4.6314738  32.5169980
  31.1858617   1.4494066  34.1235601  30.6579979   0.7146825  33.8108838
  30.6846120   2.2268742  33.8775569  36.1651463  -0.3556914  39.2402647
  35.5075138   0.3342347  39.3282776  36.9691862   0.0339518  39.5836633
  34.9756922  -2.0012541  37.2906589  35.4888804  -1.3682549  37.7928298
  35.6258146  -2.6011346  36.9249949  32.2379296   7.9771783  30.0467260
  31.5640995   8.2803480  30.6552218  32.6245118   8.7800863  29.6972717
  31.4537753  -4.5263086  39.5364929  30.5360314  -4.3048139  39.3786617
  31.8697896  -4.4516775  38.6776637  32.2372801  -3.1271670  34.6667609
  32.9844620  -2.6150273  34.3574731  32.5064390  -3.4487617  35.5272003
  30.5099451  -0.6313129  31.6494564  29.6010670  -0.9154096  31.7467033
  30.5394535  -0.2114051  30.7897871  35.7418718   2.9793460  35.4185731
  35.2881045   2.1384370  35.4750922  35.1112685   3.6154859  35.7560511
  34.6851638  -6.0914554  36.6486399  33.9474395  -6.6037168  36.9796641
  34.9378411  -6.5314172  35.8369676  34.1851657   4.8169957  36.3535549
  34.4774632   5.3775014  35.6347915  34.6950278   5.1098518  37.1088709
  29.0584345  -3.0184509  37.7504359  29.1132955  -3.9710672  37.6746836
  28.2475547  -2.8625070  38.2345657  30.2075539   0.9095614  28.9882642
  29.7694968   0.1931473  28.5288280  30.9485979   1.1371729  28.4267734
  29.1485283   5.5950308  37.4429003  29.1061461   5.8211154  36.5137535
  30.0647981   5.3613683  37.5914804  32.5950916  -3.9365624  44.3409632
  32.9500304  -3.7094151  45.2004098  33.2423048  -3.6047248  43.7186887
  38.3248653  -0.8147189  35.0458961  38.1866552  -0.6245593  34.1180150
  37.9684872  -0.0527806  35.5027012  38.3518033   1.2529338  40.0570232
  38.7854540   1.1604628  40.9053286  39.0649614   1.2286839  39.4190248
  27.2651083   2.4713337  37.2390965  28.0591682   1.9763657  37.0373540
  26.5542776   1.9431200  36.8758671  32.0845928   4.8531433  41.5903333
  32.1382950   5.4222369  42.3581049  31.2160709   5.0233318  41.2257370
  39.2133583   1.2953039  42.5903118  39.4069473   2.1998850  42.8362393
  39.1134201   0.8360458  43.4241703  34.2748691   1.4459782  48.1643998
  34.1234198   1.2170334  47.2474082  34.2653371   2.4030383  48.1775343
  31.0434028  -0.9808305  43.1490265  31.9726088  -0.8297146  42.9759232
  30.6225058  -0.8924285  42.2938911  29.8422359   3.0442359  40.9188802
  29.7033445   2.6761143  41.7914741  29.0536956   3.5589998  40.7472760
  30.4370511   8.1451455  32.2614339  30.6122267   7.6739499  33.0759962
  29.7503299   8.7717222  32.4895600  31.3927575   2.4223962  38.3077640
  31.0577407   2.3824732  39.2035290  30.8931520   1.7568678  37.8348050
  34.3286766  -0.2320004  28.5814700  33.7115937  -0.9573176  28.4847753
  33.8603255   0.5289356  28.2381774  27.9954119  -2.4588449  43.3213901
  28.7053738  -3.0995257  43.2800519  27.9523427  -2.2075554  44.2440082
  35.9840898   4.4778904  46.2420480  35.9253444   3.7938125  45.5751063
  36.3860416   5.2197894  45.7901106  25.0031597  11.2940818  39.0354199
  25.2428195  11.9259342  39.7133218  24.1600793  10.9428858  39.3219558
  35.9858305   2.4418488  44.4734460  35.0985084   2.1044410  44.5960859
  36.5556856   1.7101520  44.7103225  29.5159458   7.1019941  41.4395703
  29.4429630   7.9074912  41.9515008  29.0736852   7.3011907  40.6143725
  29.3049238   6.3391711  34.9498525  28.5216760   6.8813391  35.0436749
  30.0041983   6.8565690  35.3492766  40.4675646  -2.1473294  39.2351022
  40.4565522  -1.2648579  38.8644955  39.5993025  -2.5001743  39.0405559
  31.9758142   7.0006775  43.5953862  32.6886114   7.6354240  43.5229763
  31.4848171   7.0970641  42.7793864  33.6975669   0.9058027  35.1671153
  32.7631948   1.0259490  34.9975858  33.8752337   0.0030494  34.9031163
  37.0848220  -3.2524653  35.7021188  37.5508672  -2.4196662  35.6281490
  37.5355721  -3.7179672  36.4066446  27.0270056   4.7501218  44.4159433
  27.7279515   5.3837701  44.5688827  26.5565171   5.0915950  43.6555072
  35.1524451   3.0919168  32.7007340  35.4284295   2.9775763  33.6101214
  34.2828950   2.6936653  32.6619513  34.8271342  -2.6954174  42.2411983
  34.1742792  -2.4478267  41.5864436  35.2051721  -3.5090036  41.9074460
  31.7878515   7.3405519  36.3440153  31.9700910   6.5227175  36.8067906
  32.6111501   7.5573211  35.9065043  32.1220681   6.2673704  33.6055202
  32.6508447   5.7566159  32.9925364  32.3848900   5.9516234  34.4700735
  30.8758915  -1.9534363  48.7278020  30.1999552  -2.0540234  49.3980395
  31.6986548  -2.1095150  49.1914017  22.6237774   4.2837573  41.3490535
  23.2091210   3.5381261  41.4818439  22.4262612   4.5941530  42.2327199
  25.4776429   7.3188821  36.3652978  24.8086804   7.8034948  35.8817018
  25.3389299   7.5658041  37.2796356  29.6181697   9.3532564  42.9635636
  30.1700005   9.5164186  43.7284721  29.9587891   9.9437002  42.2915661
  34.4692572   4.1793822  48.8184290  35.0132476   4.7923780  48.3239245
  33.8879417   4.7373400  49.3351303  32.7550085   7.3014540  39.9499318
  32.6301224   6.5004280  39.4410264  33.4129176   7.7960733  39.4613288
  34.8184993   5.1023560  41.5778868  33.8715329   4.9828911  41.5057195
  35.1667766   4.2146058  41.6605130  31.8231426   4.8976276  37.7783221
  31.6756389   3.9692983  37.9590791  32.6484920   4.9196367  37.2940296
  35.4265548   5.7204835  38.8648093  36.3512096   5.5147696  38.7272544
  35.2580852   5.4721236  39.7737435  35.2160864   6.2390502  34.2210185
  35.3897742   5.6736925  33.4684037  35.7089756   7.0391397  34.0389675
  41.0700256  -0.9973075  35.8400484  41.5131402  -1.7465750  35.4419608
  40.1926766  -1.0062939  35.4574216  36.2036037   5.5557267  31.3207083
  36.8986942   6.1763959  31.5394398  36.5459187   4.7052618  31.5959461
  38.1027460   3.0056972  32.8494414  38.6278784   3.3444245  32.1243734
  38.0149813   2.0703987  32.6657548  29.7647509   6.9191046  44.9784290
  30.0734635   6.6740193  45.8506990  30.5622991   7.1237684  44.4903161
  29.7868121   9.0728955  37.2089667  29.3473111   8.5805334  37.9022524
  30.5376238   8.5301923  36.9681742  22.2660460   5.2640496  37.2114295
  23.0918480   4.9644268  36.8312939  21.9154512   4.4948119  37.6604084
  27.2341993   4.6166964  39.2811969  26.6122002   3.9537669  38.9814196
  27.9046860   4.6428096  38.5985616  20.4669065   3.1826823  38.1703229
  19.6300973   2.7548997  37.9887230  20.4392710   3.3759266  39.1074020
  37.7921366   3.6389876  48.1545612  37.0016910   3.6214015  47.6150111
  37.5554721   4.1778169  48.9094648  37.9119241   0.4882342  45.4678340
  37.9617246   0.3232350  46.4093863  37.8033164  -0.3790399  45.0776221
  26.7955500   3.1670888  32.7570429  26.9443620   3.8506352  32.1037102
  27.6021943   3.1475978  33.2719885  35.2023004  -3.5286730  46.7837647
  36.1032866  -3.6680265  46.4921645  35.2770978  -3.3632275  47.7235824
  39.4137438   2.9079284  45.7120362  39.1222246   3.2709264  46.5483823
  38.8009569   2.1946292  45.5333694  40.6133120   0.4732163  38.2322932
  41.4480012   0.9121967  38.3960492  40.7492249  -0.0029183  37.4131178
  37.6624626  -1.9688102  44.1800420  38.1378748  -1.7760455  43.3719271
  36.7390192  -1.9128916  43.9343803  30.2950905   5.6619018  30.2282177
  29.7224872   6.2809205  29.7752648  30.8683699   6.2118380  30.7622099
  36.3626295  -5.0922342  42.4128725  37.3143718  -4.9924244  42.4340949
  36.1929746  -5.8844073  42.9226810  34.3840675  -8.0066758  42.5988126
  33.7890607  -7.7261746  41.9034615  34.0990371  -7.5172858  43.3704867
  33.5148165   5.9456168  31.3590759  34.4478838   5.8801730  31.5623634
  33.4271378   6.7812435  30.9005292  36.1436182   5.2622039  28.3194706
  36.0649813   4.9281902  29.2130464  36.9645849   5.7543807  28.3186179
  38.8414373  -1.8716222  41.5271025  38.8090693  -2.8100221  41.7130709
  39.4514997  -1.7932185  40.7936850  38.9908861  -5.0805179  41.5729308
  38.4747910  -5.8646722  41.3859237  39.8748810  -5.4086462  41.7375828
  44.6590923  -0.8100215  40.6677062  45.3894311  -1.0714927  41.2284765
  44.0497868  -1.5471493  40.7079130  42.7406220  -2.6692353  41.2651513
  42.0139384  -2.8036388  40.6568005  42.3253507  -2.3615524  42.0708231
  30.5636396   1.0497577  49.0298886  31.4839406   1.2276176  49.2238933
  30.5285979   0.1053622  48.8778585  28.2957604  -2.0371044  49.8789478
  27.8124686  -1.2370683  50.0853367  28.3818543  -2.0263099  48.9256922
  24.2230942   1.8533491  41.9157912  25.1774195   1.8217433  41.8487843
  24.0243465   1.3924115  42.7308138  24.8130324   0.4234607  44.4828709
  25.6323213   0.9178686  44.5063547  25.0867132  -0.4933425  44.4546277
  34.5696920  -7.1854641  33.8456665  33.6822775  -6.9004990  33.6276860
  34.9850909  -7.3460877  32.9983942  37.9211456  -7.1608120  37.5611004
  38.6971846  -6.6711667  37.8335621  37.1959590  -6.7350065  38.0182874
  22.5781171   7.3953111  38.9328109  22.4435639   6.6353511  38.3666108
  22.1613233   8.1194010  38.4656898  33.7140134   2.5790034  27.9404685
  34.4175984   2.7840037  28.5562340  32.9902782   3.1466796  28.2053768
  34.5437944  -1.6700105  34.0606955  34.4873145  -1.2131553  33.2214587
  35.0966286  -2.4309420  33.8829798  38.3542750  -5.8810373  34.8857074
  38.0979684  -6.2813737  35.7165282  37.7295618  -5.1666579  34.7607214
  42.6655088  -3.1414300  37.3928366  42.1054646  -3.0721110  38.1659928
  42.0598591  -3.3173315  36.6727862  25.7350296   8.2922428  39.1446552
  25.6182681   9.2367860  39.0425242  24.9142743   7.9895989  39.5332351
  35.6226831   3.0172563  29.9903145  36.4572435   2.5853762  29.8080620
  35.4611174   2.8454577  30.9180039  35.2772723  -0.4795323  31.3559484
  35.2221527  -0.6451052  30.4147928  34.6518778   0.2280710  31.5121674
  32.5918630   1.8253588  50.6813047  33.4609790   1.9994241  50.3199682
  32.1125382   2.6448005  50.5588776  26.7604811   8.9450689  42.3602481
  27.6632057   8.9774300  42.6768975  26.5342181   8.0151140  42.3748816
  28.5158413   7.6981676  39.0212559  27.5654044   7.6983538  38.9076931
  28.8190899   6.9514411  38.5048594  44.2511106  13.5342214  40.0858322
  44.8889516  13.4148962  39.3821662  44.1331949  14.4823058  40.1446274
  41.0600812  13.4869643  40.0219846  40.7219324  13.3710707  39.1340381
  41.9290581  13.0860808  40.0020852  36.9187628  15.3405119  36.0116737
  36.3552493  15.2495056  35.2433025  36.8040023  14.5205023  36.4919230
  41.5420595  14.6404494  45.9806052  41.5309236  14.2457293  45.1086555
  41.7041235  13.9070567  46.5739823  34.4652060  16.8356311  38.8500958
  35.2573352  16.4947135  38.4347257  34.7048710  16.9451286  39.7703111
  42.4987187  19.0076087  31.3231202  41.8475167  19.5930167  30.9365216
  43.2931550  19.5382282  31.3826240  36.4242814  16.0965224  31.7218336
  37.1973690  15.5494211  31.5831212  36.7768213  16.9609473  31.9332798
  38.2627857  17.4241606  44.9285236  37.9717722  18.3287237  44.8131902
  38.8984841  17.4658134  45.6429305  39.1884063  14.8018455  41.5186595
  39.7847636  14.5774477  40.8043558  39.2459035  14.0603200  42.1212043
  38.7609092  12.2557890  29.3536786  39.0134612  11.7339411  28.5920249
  37.8233651  12.0924035  29.4563470  43.8052375  11.2593668  37.1611530
  44.5915464  10.8413091  36.8101947  44.0691079  12.1639760  37.3293178
  43.9762452  16.6966519  31.8600186  43.3408285  16.7701145  32.5721091
  43.6459858  17.2860117  31.1819266  49.2060802  11.1968901  38.0644508
  49.9385974  10.6268118  38.2982338  48.4500157  10.8090502  38.5051014
  38.4805381  14.1585996  31.5561161  38.3641639  13.4830899  32.2242246
  38.5907640  13.6718370  30.7393314  40.8236921  13.6196143  35.2607851
  40.4595129  13.0926764  35.9720772  41.6804037  13.2294612  35.0874336
  46.7286222   4.9090476  42.5239117  46.3969547   5.7785887  42.3000332
  46.1331835   4.5926760  43.2033147  40.4642408   8.6486043  30.2569199
  40.6316811   9.5166279  30.6239670  40.2739577   8.8113324  29.3330488
  43.2217742  17.1103022  41.9235029  42.9218465  18.0128060  41.8150837
  42.8768801  16.8435205  42.7756182  36.6730223  13.5616818  37.9571734
  35.7480720  13.4293033  38.1649426  36.9214636  14.3411038  38.4541676
  46.6214885   9.6285562  39.6032467  45.7131763   9.5600970  39.3091228
  46.5702481  10.1057507  40.4314292  40.4431629  11.1043700  31.2415866
  40.3231254  11.5500751  32.0801346  39.7484218  11.4529018  30.6829404
  34.0339034  13.2050092  38.7915523  34.1631415  13.4584571  39.7054935
  33.3536485  13.7977800  38.4720178  38.2038521  23.8747342  34.8905997
  38.1262551  24.8255167  34.9694478  37.6000165  23.5293214  35.5480923
  40.6955751  11.0475207  47.5467364  39.9189085  11.6069127  47.5370229
  41.3346314  11.5331990  48.0682234  48.4876532   7.8302000  41.3810341
  47.8450912   8.1234533  40.7350135  47.9831460   7.7154921  42.1863537
  46.1416695  11.5765173  32.0696200  47.0534552  11.8092560  31.8943897
  45.6326343  12.1602218  31.5071279  38.9502123  13.8560661  47.1085331
  39.6916808  14.3945705  46.8320155  38.2439109  14.4826949  47.2656883
  44.4257463  15.9989801  45.7057493  44.8340819  15.5572212  44.9612125
  43.7034725  15.4242429  45.9591685  40.7788533  10.9362408  43.0791049
  41.6249728  11.3601822  43.2225698  40.7187171  10.2796032  43.7729613
  44.7486278  16.5590992  39.4609781  44.1195140  16.7236706  38.7585849
  44.3611940  16.9732601  40.2320745  48.6275510  17.4945430  36.8154145
  47.9426548  17.8744331  36.2651178  48.7119359  18.1040756  37.5486093
  43.9287978   8.5966776  44.7372223  43.6848910   9.3508837  44.2006499
  44.2047909   8.9752124  45.5719470  45.8826441  15.1405389  43.4149489
  46.0943337  15.7837149  42.7383870  45.8356190  14.3067705  42.9471419
  43.4852670   7.7523209  40.3186061  42.6237149   8.0504463  40.6102798
  43.5115105   7.9693608  39.3867093  40.3014240  16.2965400  36.7259867
  40.7652585  16.5753103  35.9364489  40.0371038  15.3948844  36.5432957
  37.1938321  15.8436881  39.6639630  37.7639678  16.2724150  39.0257114
  37.7846433  15.5619466  40.3623815  39.2383126  12.4188552  33.5349432
  39.9407169  12.8709596  34.0023358  38.9063754  11.7772371  34.1629325
  37.6863487  11.0100309  47.9100641  37.0562148  11.6916590  48.1436038
  37.5799575  10.8983390  46.9653779  32.9808460  10.6772105  38.8366565
  32.1907514  10.9329633  38.3606676  33.4719707  11.4920443  38.9418606
  46.9972269  18.0177344  41.5871846  47.8189713  17.6157531  41.3054528
  46.9934672  17.9145578  42.5387962  34.9323205  11.0416684  35.7950042
  34.1354368  11.1535378  36.3133538  34.7048797  11.3803336  34.9290932
  40.7628873  17.5661387  43.7432557  40.8273305  18.0281795  44.5790728
  40.0539797  16.9358752  43.8714866  31.2646163  10.9302595  41.2681556
  31.5154201  11.8149605  41.5339132  31.8005711  10.7507197  40.4956648
  55.0878262  14.3616093  37.9356818  54.3341971  13.7923491  37.7800822
  55.2225803  14.3278757  38.8827452  40.4776890  19.2329495  33.6111537
  40.3422565  20.0781031  34.0396385  41.0186703  19.4348773  32.8477471
  36.9644230   5.3121075  50.2725892  36.5711176   4.7587273  50.9473536
  37.7810370   5.6231653  50.6632410  33.9306288  16.7504933  34.1839462
  34.4430808  17.5448183  34.3345027  34.5829001  16.0531223  34.1173063
  35.7401172  19.8670689  36.2662215  35.9167801  20.7888654  36.0783199
  36.5358006  19.5529108  36.6956595  39.8812191   6.7278954  47.8646149
  40.6221904   7.3286107  47.7850611  40.1130114   5.9856592  47.3064191
  35.0253529  11.9135321  46.1424378  34.9107044  11.0120578  46.4431477
  34.1698047  12.1599018  45.7909195  42.1045367  19.8553061  47.7411879
  41.6609221  19.0689440  47.4232783  42.7662580  20.0432212  47.0755770
  36.8632488  21.3848863  42.2672557  37.4139913  21.2565926  41.4949551
  36.0243964  21.6843752  41.9167450  44.2026605  20.1355861  45.7693280
  44.1845080  20.9564742  45.2773549  45.1246525  20.0109937  45.9943421
  40.6599659  17.6499991  46.6116789  41.1927996  16.8888279  46.3816097
  40.1313740  17.3573643  47.3540943  43.8269354   2.7560057  42.1410430
  43.4833623   3.6461698  42.0649541  44.1948316   2.5661714  41.2780015
  31.8955204  15.0793587  34.9599032  32.7330426  15.4890596  34.7432740
  32.0733472  14.1393029  34.9299226  43.7919637  12.7468668  30.6482865
  43.2766260  13.5173273  30.8871253  43.5196945  12.0733804  31.2715927
  41.3766748   7.5918369  35.7068104  40.5208344   7.2025219  35.5273743
  41.7893699   7.6710329  34.8467889  42.9065894   5.1264712  40.1059664
  42.4030690   5.0894847  39.2927469  43.1996501   6.0357455  40.1656320
  39.1508780   5.2103442  39.1125845  40.0161777   5.0146250  38.7531735
  39.2186289   4.9813793  40.0395202  48.7653911  15.5001023  32.5836039
  47.9883354  15.1612182  32.1391201  49.4445392  15.5053646  31.9091004
  43.5805940  10.6195760  32.4742647  43.2756075  10.9341909  33.3252790
  44.5336382  10.6977180  32.5169980  42.0252372  16.7785983  34.1235601
  41.4973733  16.0438743  33.8108838  41.5239874  17.5560660  33.8775569
  47.0045218  14.9735004  39.2402647  46.3468892  15.6634265  39.3282776
  47.8085617  15.3631436  39.5836633  36.7571099   7.4405650  36.4842212
  37.3314851   7.2180831  35.7515405  37.3442082   7.5094344  37.2370813
  45.8150676  13.3279376  37.2906589  46.3282558  13.9609368  37.7928298
  46.4651900  12.7280572  36.9249949  37.0840686   9.4710111  30.5038097
  36.2477999   9.8084797  30.8247372  36.9445456   9.3359090  29.5665234
  39.0593767   4.3146898  35.2117282  38.4058179   3.9995916  34.5873896
  39.0174241   3.6922639  35.9377104  40.1704972  14.5966194  27.1270574
  39.2632034  14.3655447  27.3261723  40.6676004  13.8003813  27.3144555
  43.0773051  23.3063701  30.0467260  42.4034749  23.6095397  30.6552218
  43.4638873  24.1092781  29.6972717  42.2931507  10.8028832  39.5364929
  41.3754069  11.0243779  39.3786617  42.7091651  10.8775142  38.6776637
  43.0766555  12.2020248  34.6667609  43.8238374  12.7141645  34.3574731
  43.3458145  11.8804300  35.5272003  41.3493205  14.6978788  31.6494564
  40.4404424  14.4137821  31.7467033  41.3788289  15.1177867  30.7897871
  46.5812473  18.3085378  35.4185731  46.1274800  17.4676288  35.4750922
  45.9506439  18.9446776  35.7560511  45.5245392   9.2377364  36.6486399
  44.7868149   8.7254750  36.9796641  45.7772166   8.7977746  35.8369676
  45.0245412  20.1461875  36.3535549  45.3168386  20.7066932  35.6347915
  45.5344032  20.4390436  37.1088709  45.6257020   2.0153616  37.2428168
  45.9315896   1.1550979  36.9554083  46.3509624   2.6071236  37.0427162
  31.9181376  12.4184303  35.6309766  31.7205775  11.8253663  34.9060832
  31.3628040  12.1136513  36.3485705  39.8978099  12.3107409  37.7504359
  39.9526709  11.3581245  37.6746836  39.0869301  12.4666848  38.2345657
  41.0469293  16.2387532  28.9882642  40.6088723  15.5223391  28.5288280
  41.7879734  16.4663647  28.4267734  37.8370459  10.9284469  35.5094738
  37.0238325  11.2278639  35.9159930  38.3329453  10.5340158  36.2269220
  39.9879037  20.9242226  37.4429003  39.9455216  21.1503072  36.5137535
  40.9041736  20.6905600  37.5914804  43.4344671  11.3926293  44.3409632
  43.7894059  11.6197766  45.2004098  44.0816802  11.7244670  43.7186887
  49.1642408  14.5144729  35.0458961  49.0260306  14.7046325  34.1180150
  48.8078627  15.2764112  35.5027012  37.3284534   8.5002824  41.1255973
  37.9683913   8.3591583  40.4278936  36.4962065   8.2137338  40.7494575
  49.1911787  16.5821256  40.0570232  49.6248294  16.4896545  40.9053286
  49.9043368  16.5578757  39.4190248  38.1044838  17.8005255  37.2390965
  38.8985436  17.3055575  37.0373540  37.3936530  17.2723118  36.8758671
  42.9239682  20.1823350  41.5903333  42.9776705  20.7514287  42.3581049
  42.0554464  20.3525235  41.2257370  34.4127601  11.9448336  33.3150718
  33.4825189  11.8832792  33.5320680  34.5085073  11.4224289  32.5187359
  34.3313150   8.4703149  35.9028960  34.5919968   9.3848483  35.7938120
  35.1530323   8.0027592  36.0525573  35.8038076   9.8840906  43.0727784
  36.4761129   9.6758269  42.4240433  34.9767862   9.6862992  42.6333017
  50.0527337  16.6244957  42.5903118  50.2463227  17.5290767  42.8362393
  49.9527955  16.1652376  43.4241703  41.7063648   6.5102847  45.0893445
  41.0591563   7.2092797  44.9957922  42.4764663   6.9438991  45.4569693
  45.1142446  16.7751700  48.1643998  44.9627952  16.5462251  47.2474082
  45.1047125  17.7322301  48.1775343  41.8827782  14.3483612  43.1490265
  42.8119842  14.4994772  42.9759232  41.4618812  14.4367633  42.2938911
  40.6816114  18.3734277  40.9188802  40.5427200  18.0053061  41.7914741
  39.8930710  18.8881916  40.7472760  41.2764266  23.4743373  32.2614339
  41.4516022  23.0031416  33.0759962  40.5897054  24.1009139  32.4895600
  42.2321329  17.7515879  38.3077640  41.8971162  17.7116649  39.2035290
  41.7325275  17.0860595  37.8348050  36.2065573  13.1583509  43.8330221
  36.0685371  12.4263748  44.4341760  37.1170496  13.0692410  43.5514409
  45.1680521  15.0971914  28.5814700  44.5509691  14.3718742  28.4847753
  44.6997009  15.8581274  28.2381774  38.8347874  12.8703469  43.3213901
  39.5447492  12.2296661  43.2800519  38.7917182  13.1216364  44.2440082
  46.8234652  19.8070822  46.2420480  46.7647198  19.1230042  45.5751063
  47.2254171  20.5489812  45.7901106  37.5476808   9.8568687  45.1409541
  37.0114165   9.4059425  45.7931137  36.9593516   9.9914595  44.3980005
  35.8425351  26.6232736  39.0354199  36.0821949  27.2551260  39.7133218
  34.9994548  26.2720776  39.3219558  36.9579067   9.3157338  27.7036004
  36.0808533   9.1946139  27.3398251  37.4336820   8.5243416  27.4514893
  46.8252060  17.7710406  44.4734460  45.9378838  17.4336328  44.5960859
  47.3950611  17.0393437  44.7103225  28.4781207  14.1034498  37.7977511
  29.1652247  13.7896228  37.2098527  28.3229335  15.0075862  37.5244763
  33.2815929   8.9924694  42.2262535  33.1974118   8.3850364  41.4912945
  32.4598635   9.4833713  42.2272031  40.3553213  22.4311858  41.4395703
  40.2823384  23.2366830  41.9515008  39.9130606  22.6303824  40.6143725
  40.1442993  21.6683628  34.9498525  39.3610514  22.2105309  35.0436749
  40.8435738  22.1857608  35.3492766  43.4539643   7.4778258  37.5932730
  43.9508342   6.7248220  37.2733800  42.6826624   7.5142575  37.0275939
  51.3069400  13.1818623  39.2351022  51.2959276  14.0643339  38.8644955
  50.4386780  12.8290174  39.0405559  42.8151896  22.3298692  43.5953862
  43.5279869  22.9646157  43.5229763  42.3241925  22.4262558  42.7793864
  44.5369423  16.2349945  35.1671153  43.6025702  16.3551408  34.9975858
  44.7146092  15.3322412  34.9031163  40.0374611   9.6195641  37.3204415
  39.6672399   9.0666681  38.0085320  40.5333704   9.0153774  36.7679415
  47.9241975  12.0767264  35.7021188  48.3902427  12.9095256  35.6281490
  48.3749475  11.6112246  36.4066446  37.8663810  20.0793136  44.4159433
  38.5673270  20.7129619  44.5688827  37.3958925  20.4207867  43.6555072
  45.9918206  18.4211086  32.7007340  46.2678050  18.3067680  33.6101214
  45.1222705  18.0228571  32.6619513  45.8958638   4.4447851  39.7412089
  44.9821717   4.6752078  39.9094296  46.3251739   4.5286295  40.5926121
  45.6665096  12.6337743  42.2411983  45.0136546  12.8813651  41.5864436
  46.0445476  11.8201882  41.9074460  42.6272270  22.6697436  36.3440153
  42.8094664  21.8519092  36.8067906  43.4505256  22.8865129  35.9065043
  42.9614435  21.5965622  33.6055202  43.4902202  21.0858076  32.9925364
  43.2242655  21.2808152  34.4700735  41.7152669  13.3757554  48.7278020
  41.0393306  13.2751684  49.3980395  42.5380303  13.2196768  49.1914017
  33.4631528  19.6129491  41.3490535  34.0484965  18.8673179  41.4818439
  33.2656367  19.9233448  42.2327199  36.3170183  22.6480738  36.3652978
  35.6480559  23.1326866  35.8817018  36.1783053  22.8949959  37.2796356
  28.0549183  12.1835091  40.0694978  28.0933282  11.6498682  40.8632097
  27.5489476  11.6570297  39.4505956  40.4575452  24.6824482  42.9635636
  41.0093760  24.8456103  43.7284721  40.7981645  25.2728920  42.2915661
  35.4339945   7.0299632  43.5657521  35.4981272   7.8914463  43.1534918
  35.3707065   6.4173633  42.8329879  34.9092218   9.1022764  47.2130555
  35.5364256   8.7199841  47.8268079  34.0520137   8.8836966  47.5786247
  45.3086326  19.5085739  48.8184290  45.8526230  20.1215698  48.3239245
  44.7273171  20.0665318  49.3351303  31.6857760  10.9099193  33.1448910
  31.9811201  10.0009872  33.0915964  30.7845796  10.8886933  32.8229912
  43.5943839  22.6306457  39.9499318  43.4694979  21.8296197  39.4410264
  44.2522930  23.1252651  39.4613288  35.2152007   8.9855190  39.1276458
  34.4938593   9.5991158  38.9883932  36.0045263   9.5212955  39.0493104
  45.6578748  20.4315477  41.5778868  44.7109083  20.3120829  41.5057195
  46.0061521  19.5437975  41.6605130  38.0178321   6.3209616  45.4017110
  38.5412723   6.5671913  46.1643419  37.7990654   7.1529651  44.9820248
  33.4145602   8.5913291  33.2688235  33.0858308   7.7110670  33.0863341
  33.7684973   8.5360960  34.1564624  42.6625181  20.2268194  37.7783221
  42.5150143  19.2984901  37.9590791  43.4878674  20.2488284  37.2940296
  36.5287425   8.8786261  33.6363713  36.8683498   9.4072182  32.9142321
  36.9759546   9.2166667  34.4122279  46.2659303  21.0496752  38.8648093
  47.1905850  20.8439614  38.7272544  46.0974606  20.8013154  39.7737435
  39.2230866   7.2623311  43.0866781  38.8827686   6.4631125  43.4887461
  38.5169872   7.5625022  42.5143614  39.8747338   4.3472624  41.5394104
  40.6973407   3.8733102  41.4172994  40.1185401   5.1263108  42.0392790
  38.5155572   7.3760882  31.8357005  39.2363935   7.7542135  31.3320722
  37.8920876   8.0949759  31.9391983  42.6586695   8.0806031  32.7715338
  42.8750310   8.9630669  32.4704166  42.1780762   7.6892245  32.0420980
  37.3985917  11.0391745  39.3486082  37.2530497  11.3532048  40.2410364
  36.9211120  11.6576645  38.7956981  39.2582299   8.0294293  39.3966972
  39.2443868   7.1335386  39.0599270  39.9754728   8.0364956  40.0305258
  41.1108430   8.4631633  41.4420099  40.8526208   9.3848703  41.4404430
  40.5793471   8.0662067  42.1320563  46.0554619  21.5682420  34.2210185
  46.2291496  21.0028842  33.4684037  46.5483510  22.3683315  34.0389675
  31.8731579  13.5797089  42.2873744  31.3285047  14.3556897  42.4194018
  32.7510929  13.9267893  42.1292865  38.6619195   6.9108673  34.6654542
  38.7835107   5.9825319  34.8645430  38.3721238   6.9247359  33.7532857
  41.5310386   4.5963583  37.8021262  41.5532083   4.6602916  36.8473241
  41.9478445   3.7568092  37.9961768  51.9094010  14.3318843  35.8400484
  52.3525156  13.5826168  35.4419608  51.0320520  14.3228979  35.4574216
  47.0429791  20.8849184  31.3207083  47.7380696  21.5055877  31.5394398
  47.3852942  20.0344535  31.5959461  32.6597601  12.7066985  45.1803900
  31.9179337  12.8549621  45.7668531  32.3390345  12.9675251  44.3170650
  48.9421215  18.3348890  32.8494414  49.4672539  18.6736163  32.1243734
  48.8543567  17.3995905  32.6657548  40.6041263  22.2482963  44.9784290
  40.9128390  22.0032110  45.8506990  41.4016745  22.4529602  44.4903161
  40.6261875  24.4020873  37.2089667  40.1866866  23.9097252  37.9022524
  41.3769992  23.8593841  36.9681742  33.1054214  20.5932414  37.2114295
  33.9312234  20.2936186  36.8312939  32.7548266  19.8240036  37.6604084
  38.0735747  19.9458882  39.2811969  37.4515757  19.2829587  38.9814196
  38.7440614  19.9720014  38.5985616  31.3062819  18.5118740  38.1703229
  30.4694728  18.0840915  37.9887230  31.2786465  18.7051184  39.1074020
  38.1460275   8.4240670  48.8744475  38.1948430   9.3002793  48.4922244
  38.6882789   7.8818063  48.3016118  48.6315121  18.9681793  48.1545612
  47.8410664  18.9505932  47.6150111  48.3948475  19.5070087  48.9094648
  48.7512996  15.8174260  45.4678340  48.8011001  15.6524267  46.4093863
  48.6426919  14.9501519  45.0776221  37.6349254  18.4962805  32.7570429
  37.7837375  19.1798270  32.1037102  38.4415698  18.4767896  33.2719885
  46.0416758  11.8005188  46.7837647  46.9426621  11.6611653  46.4921645
  46.1164733  11.9659643  47.7235824  40.3759563   9.1772043  45.6290833
  39.5062873   9.4705609  45.3573422  40.6119044   9.7612488  46.3498097
  50.2531192  18.2371201  45.7120362  49.9616001  18.6001182  46.5483823
  49.6403324  17.5238210  45.5333694  51.4526875  15.8024081  38.2322932
  52.2873766  16.2413885  38.3960492  51.5886004  15.3262734  37.4131178
  48.5018381  13.3603816  44.1800420  48.9772502  13.5531462  43.3719271
  47.5783946  13.4163002  43.9343803  35.3901887  14.5227983  33.7631498
  35.1447929  13.6190313  33.9611708  35.5597802  14.5245134  32.8210976
  43.0798597   5.3951659  43.1456254  43.5980541   6.1312686  42.8202742
  42.7253730   5.7015653  43.9803013  34.6597535  10.2556341  31.2617660
  33.9666780  10.3300696  30.6057696  34.4149287   9.4916684  31.7839176
  43.3311191   1.8151942  38.6657150  43.6112945   1.1475131  39.2917577
  44.1161798   2.0081038  38.1531814  41.1344660  20.9910936  30.2282177
  40.5618627  21.6101123  29.7752648  41.7077454  21.5410298  30.7622099
  47.2020050  10.2369576  42.4128725  48.1537473  10.3367674  42.4340949
  47.0323500   9.4447845  42.9226810  45.2234429   7.3225159  42.5988126
  44.6284361   7.6030172  41.9034615  44.9384126   7.8119060  43.3704867
  44.3541920  21.2748086  31.3590759  45.2872593  21.2093648  31.5623634
  44.2665132  22.1104353  30.9005292  46.9829936  20.5913956  28.3194706
  46.9043568  20.2573820  29.2130464  47.8039603  21.0835724  28.3186179
  49.6808127  13.4575696  41.5271025  49.6484448  12.5191696  41.7130709
  50.2908751  13.5359732  40.7936850  41.5191458  12.3271749  27.5698229
  42.4650563  12.1977957  27.6386647  41.1405703  11.5886411  28.0467657
  49.8302616  10.2486739  41.5729308  49.3141665   9.4645196  41.3859237
  50.7142565   9.9205456  41.7375828  47.4913343   3.9927755  37.5325121
  47.2938164   3.6842843  38.4168453  48.1013048   4.7189394  37.6623051
  55.4984677  14.5191703  40.6677062  56.2288066  14.2576991  41.2284765
  54.8891623  13.7820424  40.7079130  53.5799974  12.6599565  41.2651513
  52.8533138  12.5255530  40.6568005  53.1647261  12.9676394  42.0708231
  41.4030151  16.3789495  49.0298886  42.3233160  16.5568094  49.2238933
  41.3679734  15.4345540  48.8778585  39.7034376  10.2521725  27.5053114
  38.7965831   9.9554838  27.5815828  39.9810357   9.9551543  26.6387401
  30.6212316  11.5728088  37.9552161  30.3015100  10.7193397  37.6626535
  30.0745744  11.7876667  38.7110128  34.3992223  14.2890529  41.6721667
  34.6178233  15.2207637  41.6909701  34.8117997  13.9298504  42.4576471
  41.3196441   4.7958615  33.6597356  40.5097170   4.4505700  34.0352602
  42.0080858   4.4866159  34.2484967  43.2486990   3.8736662  35.2821652
  43.8018028   4.2932115  35.9411675  43.4857076   2.9472410  35.3244608
  39.2720089   9.8623735  51.0624416  39.1716816  10.8118092  50.9936507
  39.0541631   9.5341974  50.1900486  38.4733160   7.1108660  27.6465094
  39.3352324   7.4363559  27.9060911  38.6583504   6.3240156  27.1338159
  30.4900576  15.1931000  39.9245282  29.7964047  14.7784953  39.4115237
  31.2373567  15.2351536  39.3278701  46.6265797   5.9837187  34.7900317
  46.0464466   6.6421991  34.4078369  46.3601729   5.1614531  34.3787734
  45.0769363   5.3842244  36.9921637  45.5769141   5.4958779  36.1835956
  45.7204971   5.0803297  37.6322445  39.1351359  13.2920874  49.8789478
  38.6518441  14.0921234  50.0853367  39.2212298  13.3028819  48.9256922
  32.4037318  15.1249254  37.8011297  32.3808007  15.2236941  36.8493180
  32.7137955  15.9714405  38.1228463  35.0624696  17.1825409  41.9157912
  36.0167950  17.1509351  41.8487843  34.8637220  16.7216033  42.7308138
  35.6524078  15.7526525  44.4828709  36.4716967  16.2470603  44.5063547
  35.9260886  14.8358493  44.4546277  45.4090675   8.1437277  33.8456665
  44.5216530   8.4286928  33.6276860  45.8244664   7.9831041  32.9983942
  48.7605211   8.1683798  37.5611004  49.5365601   8.6580251  37.8335621
  48.0353345   8.5941852  38.0182874  51.1977769   8.8811417  38.6184945
  51.7922260   8.6407153  37.9078253  51.2704353   8.1618548  39.2458481
  33.4174925  22.7245028  38.9328109  33.2829393  21.9645429  38.3666108
  33.0006987  23.4485928  38.4656898  44.5533888  17.9081952  27.9404685
  45.2569738  18.1131954  28.5562340  43.8296537  18.4758714  28.2053768
  45.3831698  13.6591813  34.0606955  45.3266900  14.1160364  33.2214587
  45.9360041  12.8982498  33.8829798  49.1936504   9.4481545  34.8857074
  48.9373439   9.0478181  35.7165282  48.5689372  10.1625339  34.7607214
  53.5048842  12.1877618  37.3928366  52.9448400  12.2570807  38.1659928
  52.8992346  12.0118603  36.6727862  36.5744051  23.6214345  39.1446552
  36.4576435  24.5659778  39.0425242  35.7536497  23.3187907  39.5332351
  46.4620585  18.3464481  29.9903145  47.2966189  17.9145679  29.8080620
  46.3004928  18.1746495  30.9180039  46.1166478  14.8496594  31.3559484
  46.0615281  14.6840866  30.4147928  45.4912533  15.5572627  31.5121674
  30.9058993  10.0864659  45.1820906  31.5517856   9.5763613  45.6708131
  30.6976144  10.8233340  45.7564332  43.4312385  17.1545506  50.6813047
  44.3003544  17.3286158  50.3199682  42.9519136  17.9739923  50.5588776
  39.4262603   4.3504703  30.9344803  39.4141273   5.2946543  31.0913073
  40.3186025   4.1674849  30.6404264  37.5998565  24.2742607  42.3602481
  38.5025812  24.3066217  42.6768975  37.3735935  23.3443058  42.3748816
  39.3552167  23.0273594  39.0212559  38.4047798  23.0275455  38.9076931
  39.6584653  22.2806328  38.5048594  43.2414723   0.9447480  35.1890739
  42.4747118   0.3905967  35.3347422  43.6525428   1.0169349  36.0504891
  35.2456484   7.2332276  49.2795921  36.1087945   6.8769081  49.4899245
  34.6721894   6.8946171  49.9671325  55.0904861  28.8634132  40.0858322
  55.7283271  28.7440879  39.3821662  54.9725703  29.8114976  40.1446274
  51.8994567  28.8161560  40.0219846  51.5613078  28.7002625  39.1340381
  52.7684335  28.4152725  40.0020852  47.7581383  30.6697037  36.0116737
  47.1946248  30.5786974  35.2433025  47.6433778  29.8496941  36.4919230
  52.3814350  29.9696412  45.9806052  52.3702991  29.5749210  45.1086555
  52.5434989  29.2362485  46.5739823  45.3045814  32.1648228  38.8500958
  46.0967106  31.8239053  38.4347257  45.5442465  32.2743203  39.7703111
  47.2636568  31.4257141  31.7218336  48.0367444  30.8786129  31.5831212
  47.6161967  32.2901391  31.9332798  49.1021611  32.7533524  44.9285236
  48.8111477  33.6579155  44.8131902  49.7378595  32.7950051  45.6429305
  50.0277818  30.1310372  41.5186595  50.6241390  29.9066395  40.8043558
  50.0852789  29.3895118  42.1212043  49.6002846  27.5849808  29.3536786
  49.8528367  27.0631329  28.5920249  48.6627405  27.4215953  29.4563470
  54.6446129  26.5885586  37.1611530  55.4309218  26.1705009  36.8101947
  54.9084833  27.4931678  37.3293178  54.8156206  32.0258436  31.8600186
  54.1802039  32.0993063  32.5721091  54.4853613  32.6152035  31.1819266
  60.0454556  26.5260819  38.0644508  60.7779728  25.9560036  38.2982338
  59.2893912  26.1382420  38.5051014  49.3199135  29.4877914  31.5561161
  49.2035393  28.8122817  32.2242246  49.4301395  29.0010287  30.7393314
  51.6630676  28.9488061  35.2607851  51.2988883  28.4218682  35.9720772
  52.5197792  28.5586530  35.0874336  57.5679977  20.2382393  42.5239117
  57.2363301  21.1077804  42.3000332  56.9725590  19.9218677  43.2033147
  51.3036163  23.9777960  30.2569199  51.4710565  24.8458197  30.6239670
  51.1133332  24.1405242  29.3330488  54.0611496  32.4394939  41.9235029
  53.7612219  33.3419978  41.8150837  53.7162556  32.1727122  42.7756182
  47.5123978  28.8908736  37.9571734  46.5874474  28.7584950  38.1649426
  47.7608391  29.6702955  38.4541676  57.4608640  24.9577479  39.6032467
  56.5525517  24.8892888  39.3091228  57.4096236  25.4349424  40.4314292
  51.2825384  26.4335618  31.2415866  51.1625009  26.8792669  32.0801346
  50.5877972  26.7820936  30.6829404  44.8732789  28.5342010  38.7915523
  45.0025170  28.7876489  39.7054935  44.1930240  29.1269718  38.4720178
  49.0432276  39.2039260  34.8905997  48.9656306  40.1547085  34.9694478
  48.4393919  38.8585132  35.5480923  51.5349506  26.3767125  47.5467364
  50.7582840  26.9361045  47.5370229  52.1740069  26.8623908  48.0682234
  59.3270286  23.1593918  41.3810341  58.6844667  23.4526451  40.7350135
  58.8225215  23.0446838  42.1863537  56.9810450  26.9057091  32.0696200
  57.8928306  27.1384478  31.8943897  56.4720097  27.4894135  31.5071279
  49.7895878  29.1852578  47.1085331  50.5310562  29.7237622  46.8320155
  49.0832863  29.8118867  47.2656883  55.2651218  31.3281719  45.7057493
  55.6734574  30.8864129  44.9612125  54.5428479  30.7534346  45.9591685
  51.6182288  26.2654326  43.0791049  52.4643483  26.6893739  43.2225698
  51.5580925  25.6087950  43.7729613  59.4669264  32.8237347  36.8154145
  58.7820302  33.2036249  36.2651178  59.5513113  33.4332674  37.5486093
  54.7681733  23.9258694  44.7372223  54.5242665  24.6800755  44.2006499
  55.0441663  24.3044042  45.5719470  56.7220196  30.4697306  43.4149489
  56.9337091  31.1129066  42.7383870  56.6749944  29.6359623  42.9471419
  54.3246425  23.0815127  40.3186061  53.4630904  23.3796381  40.6102798
  54.3508859  23.2985526  39.3867093  51.1407994  31.6257318  36.7259867
  51.6046340  31.9045021  35.9364489  50.8764792  30.7240762  36.5432957
  48.0332075  31.1728799  39.6639630  48.6033432  31.6016067  39.0257114
  48.6240187  30.8911384  40.3623815  50.0776880  27.7480470  33.5349432
  50.7800924  28.2001514  34.0023358  49.7457509  27.1064289  34.1629325
  48.5257242  26.3392227  47.9100641  47.8955902  27.0208507  48.1436038
  48.4193330  26.2275308  46.9653779  43.8202214  26.0064023  38.8366565
  43.0301268  26.2621551  38.3606676  44.3113462  26.8212360  38.9418606
  45.7716960  26.3708602  35.7950042  44.9748123  26.4827296  36.3133538
  45.5442552  26.7095254  34.9290932  51.6022627  32.8953305  43.7432557
  51.6667060  33.3573712  44.5790728  50.8933551  32.2650670  43.8714866
  42.1039917  26.2594513  41.2681556  42.3547956  27.1441523  41.5339132
  42.6399466  26.0799115  40.4956648  51.3170645  34.5621413  33.6111537
  51.1816320  35.4072948  34.0396385  51.8580457  34.7640690  32.8477471
  47.8037984  20.6412992  50.2725892  47.4104930  20.0879191  50.9473536
  48.6204125  20.9523571  50.6632410  44.7700042  32.0796851  34.1839462
  45.2824563  32.8740101  34.3345027  45.4222755  31.3823141  34.1173063
  46.5794927  35.1962607  36.2662215  46.7561555  36.1180572  36.0783199
  47.3751760  34.8821026  36.6956595  50.7205945  22.0570872  47.8646149
  51.4615659  22.6578025  47.7850611  50.9523868  21.3148509  47.3064191
  45.8647283  27.2427239  46.1424378  45.7500799  26.3412496  46.4431477
  45.0091801  27.4890936  45.7909195  52.9439121  35.1844979  47.7411879
  52.5002975  34.3981358  47.4232783  53.6056335  35.3724130  47.0755770
  47.7026242  36.7140781  42.2672557  48.2533667  36.5857844  41.4949551
  46.8637718  37.0135670  41.9167450  51.4993413  32.9791908  46.6116789
  52.0321750  32.2180197  46.3816097  50.9707495  32.6865560  47.3540943
  54.6663108  18.0851974  42.1410430  54.3227378  18.9753616  42.0649541
  55.0342071  17.8953632  41.2780015  42.7348959  30.4085505  34.9599032
  43.5724181  30.8182513  34.7432740  42.9127227  29.4684947  34.9299226
  54.6313391  28.0760586  30.6482865  54.1160015  28.8465190  30.8871253
  54.3590700  27.4025722  31.2715927  52.2160502  22.9210286  35.7068104
  51.3602098  22.5317137  35.5273743  52.6287454  23.0002247  34.8467889
  53.7459649  20.4556630  40.1059664  53.2424444  20.4186765  39.2927469
  54.0390256  21.3649372  40.1656320  49.9902535  20.5395359  39.1125845
  50.8555531  20.3438168  38.7531735  50.0580044  20.3105711  40.0395202
  54.4199694  25.9487678  32.4742647  54.1149830  26.2633827  33.3252790
  55.3730136  26.0269098  32.5169980  52.8646126  32.1077901  34.1235601
  52.3367488  31.3730661  33.8108838  52.3633629  32.8852577  33.8775569
  57.8438972  30.3026921  39.2402647  57.1862647  30.9926183  39.3282776
  58.6479371  30.6923353  39.5836633  47.5964854  22.7697567  36.4842212
  48.1708606  22.5472749  35.7515405  48.1835836  22.8386262  37.2370813
  56.6544431  28.6571294  37.2906589  57.1676313  29.2901286  37.7928298
  57.3045655  28.0572490  36.9249949  47.9234441  24.8002028  30.5038097
  47.0871753  25.1376715  30.8247372  47.7839210  24.6651008  29.5665234
  49.8987521  19.6438816  35.2117282  49.2451934  19.3287833  34.5873896
  49.8567996  19.0214557  35.9377104  51.0098726  29.9258111  27.1270574
  50.1025788  29.6947365  27.3261723  51.5069758  29.1295730  27.3144555
  53.1325262  26.1320750  39.5364929  52.2147823  26.3535697  39.3786617
  53.5485405  26.2067060  38.6776637  53.9160310  27.5312165  34.6667609
  54.6632128  28.0433563  34.3574731  54.1851899  27.2096218  35.5272003
  52.1886960  30.0270706  31.6494564  51.2798179  29.7429739  31.7467033
  52.2182044  30.4469785  30.7897871  56.3639147  24.5669282  36.6486399
  55.6261903  24.0546668  36.9796641  56.6165920  24.1269663  35.8369676
  56.4650774  17.3445534  37.2428168  56.7709651  16.4842897  36.9554083
  57.1903379  17.9363154  37.0427162  42.7575130  27.7476220  35.6309766
  42.5599530  27.1545581  34.9060832  42.2021794  27.4428430  36.3485705
  50.7371854  27.6399327  37.7504359  50.7920464  26.6873163  37.6746836
  49.9263056  27.7958766  38.2345657  51.8863048  31.5679450  28.9882642
  51.4482477  30.8515309  28.5288280  52.6273488  31.7955565  28.4267734
  48.6764214  26.2576386  35.5094738  47.8632079  26.5570557  35.9159930
  49.1723208  25.8632075  36.2269220  50.8272792  36.2534143  37.4429003
  50.7848970  36.4794990  36.5137535  51.7435490  36.0197518  37.5914804
  54.2738425  26.7218211  44.3409632  54.6287813  26.9489684  45.2004098
  54.9210557  27.0536588  43.7186887  60.0036162  29.8436647  35.0458961
  59.8654061  30.0338243  34.1180150  59.6472381  30.6056030  35.5027012
  48.1678288  23.8294742  41.1255973  48.8077668  23.6883501  40.4278936
  47.3355819  23.5429255  40.7494575  60.0305542  31.9113174  40.0570232
  60.4642049  31.8188463  40.9053286  60.7437123  31.8870674  39.4190248
  48.9438592  33.1297172  37.2390965  49.7379191  32.6347493  37.0373540
  48.2330285  32.6015036  36.8758671  45.2521356  27.2740254  33.3150718
  44.3218944  27.2124710  33.5320680  45.3478828  26.7516207  32.5187359
  45.1706905  23.7995067  35.9028960  45.4313722  24.7140400  35.7938120
  45.9924077  23.3319510  36.0525573  46.6431830  25.2132824  43.0727784
  47.3154884  25.0050186  42.4240433  45.8161617  25.0154910  42.6333017
  60.8921091  31.9536874  42.5903118  61.0856982  32.8582685  42.8362393
  60.7921710  31.4944294  43.4241703  52.5457402  21.8394765  45.0893445
  51.8985317  22.5384715  44.9957922  53.3158418  22.2730909  45.4569693
  55.9536200  32.1043617  48.1643998  55.8021707  31.8754169  47.2474082
  55.9440880  33.0614219  48.1775343  52.7221537  29.6775530  43.1490265
  53.6513597  29.8286690  42.9759232  52.3012567  29.7659551  42.2938911
  51.5209868  33.7026194  40.9188802  51.3820954  33.3344979  41.7914741
  50.7324465  34.2173834  40.7472760  52.1158020  38.8035291  32.2614339
  52.2909776  38.3323334  33.0759962  51.4290808  39.4301057  32.4895600
  53.0715083  33.0807797  38.3077640  52.7364916  33.0408567  39.2035290
  52.5719029  32.4152513  37.8348050  47.0459327  28.4875427  43.8330221
  46.9079125  27.7555666  44.4341760  47.9564251  28.3984327  43.5514409
  56.0074275  30.4263831  28.5814700  55.3903446  29.7010660  28.4847753
  55.5390764  31.1873192  28.2381774  49.6741628  28.1995386  43.3213901
  50.3841247  27.5588579  43.2800519  49.6310936  28.4508281  44.2440082
  48.3870562  25.1860604  45.1409541  47.8507919  24.7351343  45.7931137
  47.7987271  25.3206513  44.3980005  46.6819106  41.9524654  39.0354199
  46.9215704  42.5843178  39.7133218  45.8388302  41.6012694  39.3219558
  47.7972821  24.6449256  27.7036004  46.9202287  24.5238057  27.3398251
  48.2730574  23.8535334  27.4514893  39.3174961  29.4326415  37.7977511
  40.0046001  29.1188145  37.2098527  39.1623090  30.3367780  37.5244763
  44.1209683  24.3216612  42.2262535  44.0367872  23.7142282  41.4912945
  43.2992390  24.8125630  42.2272031  51.1946967  37.7603776  41.4395703
  51.1217139  38.5658748  41.9515008  50.7524361  37.9595742  40.6143725
  50.9836747  36.9975546  34.9498525  50.2004269  37.5397226  35.0436749
  51.6829492  37.5149526  35.3492766  54.2933397  22.8070176  37.5932730
  54.7902097  22.0540138  37.2733800  53.5220379  22.8434492  37.0275939
  62.1463155  28.5110541  39.2351022  62.1353031  29.3935256  38.8644955
  61.2780534  28.1582092  39.0405559  53.6545651  37.6590610  43.5953862
  54.3673623  38.2938075  43.5229763  53.1635680  37.7554476  42.7793864
  55.3763178  31.5641863  35.1671153  54.4419457  31.6843325  34.9975858
  55.5539846  30.6614330  34.9031163  50.8768366  24.9487559  37.3204415
  50.5066153  24.3958599  38.0085320  51.3727458  24.3445692  36.7679415
  58.7635729  27.4059182  35.7021188  59.2296181  28.2387174  35.6281490
  59.2143230  26.9404164  36.4066446  48.7057565  35.4085054  44.4159433
  49.4067024  36.0421537  44.5688827  48.2352680  35.7499785  43.6555072
  56.7352392  19.7739769  39.7412089  55.8215472  20.0043996  39.9094296
  57.1645493  19.8578213  40.5926121  56.5058850  27.9629661  42.2411983
  55.8530301  28.2105568  41.5864436  56.8839230  27.1493799  41.9074460
  52.5546424  28.7049472  48.7278020  51.8787061  28.6043601  49.3980395
  53.3774057  28.5488686  49.1914017  44.3025283  34.9421409  41.3490535
  44.8878719  34.1965096  41.4818439  44.1050121  35.2525365  42.2327199
  47.1563938  37.9772656  36.3652978  46.4874313  38.4618784  35.8817018
  47.0176807  38.2241876  37.2796356  38.8942937  27.5127009  40.0694978
  38.9327037  26.9790599  40.8632097  38.3883230  26.9862214  39.4505956
  51.2969206  40.0116400  42.9635636  51.8487514  40.1748021  43.7284721
  51.6375400  40.6020837  42.2915661  46.2733700  22.3591549  43.5657521
  46.3375026  23.2206380  43.1534918  46.2100820  21.7465551  42.8329879
  45.7485972  24.4314682  47.2130555  46.3758011  24.0491759  47.8268079
  44.8913891  24.2128884  47.5786247  56.1480081  34.8377657  48.8184290
  56.6919985  35.4507615  48.3239245  55.5666926  35.3957235  49.3351303
  42.5251515  26.2391111  33.1448910  42.8204956  25.3301789  33.0915964
  41.6239551  26.2178850  32.8229912  46.0545762  24.3147108  39.1276458
  45.3332348  24.9283075  38.9883932  46.8439018  24.8504872  39.0493104
  48.8572075  21.6501534  45.4017110  49.3806477  21.8963831  46.1643419
  48.6384409  22.4821569  44.9820248  44.2539356  23.9205209  33.2688235
  43.9252063  23.0402588  33.0863341  44.6078727  23.8652877  34.1564624
  47.3681180  24.2078178  33.6363713  47.7077252  24.7364100  32.9142321
  47.8153300  24.5458585  34.4122279  50.0624620  22.5915229  43.0866781
  49.7221441  21.7923042  43.4887461  49.3563627  22.8916940  42.5143614
  50.7141092  19.6764542  41.5394104  51.5367162  19.2025020  41.4172994
  50.9579156  20.4555025  42.0392790  49.3549327  22.7052800  31.8357005
  50.0757689  23.0834053  31.3320722  48.7314631  23.4241677  31.9391983
  53.4980450  23.4097949  32.7715338  53.7144064  24.2922587  32.4704166
  53.0174517  23.0184162  32.0420980  48.2379671  26.3683662  39.3486082
  48.0924252  26.6823965  40.2410364  47.7604875  26.9868563  38.7956981
  50.0976054  23.3586210  39.3966972  50.0837623  22.4627303  39.0599270
  50.8148482  23.3656874  40.0305258  51.9502185  23.7923550  41.4420099
  51.6919962  24.7140621  41.4404430  51.4187225  23.3953985  42.1320563
  42.7125333  28.9089007  42.2873744  42.1678801  29.6848815  42.4194018
  43.5904683  29.2559811  42.1292865  49.5012950  22.2400590  34.6654542
  49.6228861  21.3117237  34.8645430  49.2114992  22.2539276  33.7532857
  52.3704140  19.9255501  37.8021262  52.3925837  19.9894834  36.8473241
  52.7872199  19.0860010  37.9961768  62.7487765  29.6610760  35.8400484
  63.1918911  28.9118086  35.4419608  61.8714275  29.6520897  35.4574216
  43.4991355  28.0358903  45.1803900  42.7573091  28.1841538  45.7668531
  43.1784099  28.2967168  44.3170650  59.7814969  33.6640807  32.8494414
  60.3066293  34.0028080  32.1243734  59.6937322  32.7287823  32.6657548
  51.4655630  39.7312791  37.2089667  51.0260620  39.2389169  37.9022524
  52.2163747  39.1885758  36.9681742  43.9447969  35.9224332  37.2114295
  44.7705989  35.6228103  36.8312939  43.5942021  35.1531954  37.6604084
  48.9129502  35.2750800  39.2811969  48.2909511  34.6121505  38.9814196
  49.5834369  35.3011932  38.5985616  42.1456574  33.8410658  38.1703229
  41.3088482  33.4132832  37.9887230  42.1180219  34.0343101  39.1074020
  48.9854029  23.7532588  48.8744475  49.0342185  24.6294711  48.4922244
  49.5276544  23.2109981  48.3016118  59.5906750  31.1466177  45.4678340
  59.6404755  30.9816185  46.4093863  59.4820673  30.2793436  45.0776221
  48.4743009  33.8254723  32.7570429  48.6231129  34.5090188  32.1037102
  49.2809452  33.8059813  33.2719885  56.8810513  27.1297105  46.7837647
  57.7820375  26.9903570  46.4921645  56.9558487  27.2951560  47.7235824
  51.2153318  24.5063960  45.6290833  50.3456627  24.7997526  45.3573422
  51.4512798  25.0904405  46.3498097  62.2920629  31.1315999  38.2322932
  63.1267521  31.5705803  38.3960492  62.4279758  30.6554652  37.4131178
  59.3412135  28.6895734  44.1800420  59.8166257  28.8823380  43.3719271
  58.4177701  28.7454919  43.9343803  46.2295642  29.8519901  33.7631498
  45.9841684  28.9482231  33.9611708  46.3991556  29.8537051  32.8210976
  53.9192352  20.7243577  43.1456254  54.4374296  21.4604604  42.8202742
  53.5647484  21.0307570  43.9803013  45.4991289  25.5848258  31.2617660
  44.8060534  25.6592613  30.6057696  45.2543041  24.8208602  31.7839176
  54.1704946  17.1443860  38.6657150  54.4506700  16.4767049  39.2917577
  54.9555553  17.3372955  38.1531814  58.0413804  25.5661494  42.4128725
  58.9931227  25.6659591  42.4340949  57.8717255  24.7739762  42.9226810
  56.0628184  22.6517077  42.5988126  55.4678116  22.9322090  41.9034615
  55.7777880  23.1410978  43.3704867  60.5201882  28.7867613  41.5271025
  60.4878202  27.8483614  41.7130709  61.1302506  28.8651650  40.7936850
  52.3585213  27.6563666  27.5698229  53.3044318  27.5269874  27.6386647
  51.9799458  26.9178328  28.0467657  60.6696370  25.5778657  41.5729308
  60.1535419  24.7937113  41.3859237  61.5536319  25.2497373  41.7375828
  58.3307097  19.3219672  37.5325121  58.1331919  19.0134761  38.4168453
  58.9406803  20.0481311  37.6623051  66.3378432  29.8483620  40.6677062
  67.0681820  29.5868908  41.2284765  65.7285377  29.1112342  40.7079130
  64.4193729  27.9891483  41.2651513  63.6926893  27.8547448  40.6568005
  64.0041016  28.2968311  42.0708231  52.2423905  31.7081412  49.0298886
  53.1626915  31.8860011  49.2238933  52.2073488  30.7637458  48.8778585
  50.5428130  25.5813643  27.5053114  49.6359585  25.2846755  27.5815828
  50.8204111  25.2843461  26.6387401  41.4606070  26.9020006  37.9552161
  41.1408855  26.0485314  37.6626535  40.9139499  27.1168584  38.7110128
  45.2385978  29.6182447  41.6721667  45.4571988  30.5499555  41.6909701
  45.6511752  29.2590422  42.4576471  52.1590196  20.1250532  33.6597356
  51.3490924  19.7797617  34.0352602  52.8474613  19.8158076  34.2484967
  54.0880744  19.2028579  35.2821652  54.6411783  19.6224033  35.9411675
  54.3250830  18.2764327  35.3244608  50.1113843  25.1915653  51.0624416
  50.0110570  26.1410010  50.9936507  49.8935385  24.8633892  50.1900486
  49.3126915  22.4400578  27.6465094  50.1746079  22.7655476  27.9060911
  49.4977259  21.6532074  27.1338159  41.3294330  30.5222918  39.9245282
  40.6357802  30.1076870  39.4115237  42.0767321  30.5643454  39.3278701
  57.4659551  21.3129104  34.7900317  56.8858220  21.9713908  34.4078369
  57.1995484  20.4906449  34.3787734  55.9163117  20.7134162  36.9921637
  56.4162896  20.8250697  36.1835956  56.5598725  20.4095215  37.6322445
  49.9745113  28.6212792  49.8789478  49.4912195  29.4213152  50.0853367
  50.0606052  28.6320737  48.9256922  43.2431073  30.4541171  37.8011297
  43.2201761  30.5528859  36.8493180  43.5531709  31.3006322  38.1228463
  45.9018451  32.5117326  41.9157912  46.8561704  32.4801269  41.8487843
  45.7030974  32.0507950  42.7308138  46.4917833  31.0818442  44.4828709
  47.3110722  31.5762521  44.5063547  46.7654641  30.1650411  44.4546277
  56.2484429  23.4729195  33.8456665  55.3610284  23.7578845  33.6276860
  56.6638418  23.3122958  32.9983942  59.5998965  23.4975716  37.5611004
  60.3759355  23.9872168  37.8335621  58.8747099  23.9233770  38.0182874
  62.0371524  24.2103335  38.6184945  62.6316015  23.9699071  37.9078253
  62.1098108  23.4910466  39.2458481  44.2568680  38.0536946  38.9328109
  44.1223148  37.2937347  38.3666108  43.8400742  38.7777846  38.4656898
  55.3927643  33.2373869  27.9404685  56.0963493  33.4423872  28.5562340
  54.6690291  33.8050631  28.2053768  56.2225453  28.9883731  34.0606955
  56.1660654  29.4452282  33.2214587  56.7753795  28.2274415  33.8829798
  60.0330259  24.7773463  34.8857074  59.7767193  24.3770098  35.7165282
  59.4083127  25.4917257  34.7607214  64.3442597  27.5169536  37.3928366
  63.7842155  27.5862725  38.1659928  63.7386100  27.3410520  36.6727862
  47.4137805  38.9506263  39.1446552  47.2970190  39.8951695  39.0425242
  46.5930252  38.6479825  39.5332351  57.3014340  33.6756399  29.9903145
  58.1359944  33.2437597  29.8080620  57.1398683  33.5038412  30.9180039
  56.9560232  30.1788512  31.3559484  56.9009036  30.0132783  30.4147928
  56.3306287  30.8864545  31.5121674  41.7452747  25.4156576  45.1820906
  42.3911611  24.9055530  45.6708131  41.5369898  26.1525258  45.7564332
  54.2706139  32.4837424  50.6813047  55.1397299  32.6578076  50.3199682
  53.7912891  33.3031841  50.5588776  50.2656358  19.6796621  30.9344803
  50.2535027  20.6238461  31.0913073  51.1579779  19.4966766  30.6404264
  48.4392320  39.6034525  42.3602481  49.3419566  39.6358135  42.6768975
  48.2129690  38.6734976  42.3748816  50.1945922  38.3565511  39.0212559
  49.2441553  38.3567373  38.9076931  50.4978408  37.6098246  38.5048594
  54.0808477  16.2739398  35.1890739  53.3140873  15.7197884  35.3347422
  54.4919182  16.3461266  36.0504891  46.0850238  22.5624193  49.2795921
  46.9481700  22.2060998  49.4899245  45.5115649  22.2238088  49.9671325
  58.5975137  45.9988954  36.0116737  58.0340002  45.9078891  35.2433025
  58.4827532  45.1788859  36.4919230  56.1439569  47.4940146  38.8500958
  56.9360861  47.1530971  38.4347257  56.3836219  47.6035121  39.7703111
  64.1774696  49.6659922  31.3231202  63.5262676  50.2514002  30.9365216
  64.9719059  50.1966117  31.3826240  58.1030323  46.7549059  31.7218336
  58.8761199  46.2078046  31.5831212  58.4555722  47.6193308  31.9332798
  65.6549961  47.3550354  31.8600186  65.0195794  47.4284980  32.5721091
  65.3247367  47.9443953  31.1819266  60.1592889  44.8169831  31.5561161
  60.0429148  44.1414735  32.2242246  60.2695149  44.3302205  30.7393314
  58.3517732  44.2200654  37.9571734  57.4268229  44.0876868  38.1649426
  58.6002145  44.9994873  38.4541676  55.7126543  43.8633927  38.7915523
  55.8418924  44.1168406  39.7054935  55.0323994  44.4561635  38.4720178
  70.3063019  48.1529265  36.8154145  69.6214057  48.5328166  36.2651178
  70.3906868  48.7624592  37.5486093  58.8725830  46.5020717  39.6639630
  59.4427187  46.9307985  39.0257114  59.4633942  46.2203301  40.3623815
  54.6595969  41.3355940  38.8366565  53.8695023  41.5913469  38.3606676
  55.1507216  42.1504278  38.9418606  52.9433672  41.5886431  41.2681556
  53.1941710  42.4733441  41.5339132  53.4793220  41.4091032  40.4956648
  76.7665771  45.0199928  37.9356818  76.0129480  44.4507326  37.7800822
  76.9013312  44.9862592  38.8827452  62.1564399  49.8913330  33.6111537
  62.0210074  50.7364866  34.0396385  62.6974212  50.0932608  32.8477471
  55.6093797  47.4088768  34.1839462  56.1218317  48.2032019  34.3345027
  56.2616510  46.7115059  34.1173063  57.4188681  50.5254525  36.2662215
  57.5955310  51.4472489  36.0783199  58.2145515  50.2112944  36.6956595
  53.5742713  45.7377423  34.9599032  54.4117935  46.1474431  34.7432740
  53.7520981  44.7976865  34.9299226  70.4441420  46.1584858  32.5836039
  69.6670862  45.8196017  32.1391201  71.1232901  46.1637481  31.9091004
  63.7039881  47.4369819  34.1235601  63.1761242  46.7022578  33.8108838
  63.2027383  48.2144495  33.8775569  64.7560560  53.9647536  30.0467260
  64.0822258  54.2679233  30.6552218  65.1426382  54.7676616  29.6972717
  68.2599982  48.9669213  35.4185731  67.8062309  48.1260123  35.4750922
  67.6293948  49.6030612  35.7560511  66.7032921  50.8045710  36.3535549
  66.9955895  51.3650767  35.6347915  67.2131541  51.0974271  37.1088709
  53.5968885  43.0768138  35.6309766  53.3993284  42.4837499  34.9060832
  53.0415549  42.7720348  36.3485705  61.6666546  51.5826061  37.4429003
  61.6242725  51.8086907  36.5137535  62.5829245  51.3489436  37.5914804
  70.8429917  45.1728564  35.0458961  70.7047815  45.3630160  34.1180150
  70.4866136  45.9347947  35.5027012  70.8699296  47.2405091  40.0570232
  71.3035803  47.1480381  40.9053286  71.5830877  47.2162592  39.4190248
  59.7832347  48.4589090  37.2390965  60.5772945  47.9639410  37.0373540
  59.0724039  47.9306953  36.8758671  56.0915110  42.6032172  33.3150718
  55.1612698  42.5416627  33.5320680  56.1872582  42.0808125  32.5187359
  62.9551775  54.1327209  32.2614339  63.1303530  53.6615252  33.0759962
  62.2684563  54.7592975  32.4895600  63.9108838  48.4099715  38.3077640
  63.5758671  48.3700485  39.2035290  63.4112784  47.7444431  37.8348050
  50.1568716  44.7618333  37.7977511  50.8439756  44.4480063  37.2098527
  50.0016844  45.6659698  37.5244763  61.8230502  52.3267464  34.9498525
  61.0398023  52.8689144  35.0436749  62.5223247  52.8441443  35.3492766
  72.9856909  43.8402459  39.2351022  72.9746785  44.7227174  38.8644955
  72.1174289  43.4874010  39.0405559  66.2156932  46.8933780  35.1671153
  65.2813211  47.0135243  34.9975858  66.3933601  45.9906247  34.9031163
  67.6705715  49.0794921  32.7007340  67.9465559  48.9651516  33.6101214
  66.8010214  48.6812406  32.6619513  64.3059779  53.3281272  36.3440153
  64.4882173  52.5102928  36.8067906  65.1292765  53.5448964  35.9065043
  64.6401944  52.2549457  33.6055202  65.1689711  51.7441912  32.9925364
  64.9030164  51.9391987  34.4700735  49.7336692  42.8418926  40.0694978
  49.7720791  42.3082517  40.8632097  49.2276985  42.3154132  39.4505956
  56.5879727  39.7606600  47.2130555  57.2151765  39.3783677  47.8268079
  55.7307645  39.5420801  47.5786247  53.3645269  41.5683029  33.1448910
  53.6598710  40.6593707  33.0915964  52.4633305  41.5470768  32.8229912
  64.3412690  50.8852029  37.7783221  64.1937652  49.9568736  37.9590791
  65.1666183  50.9072120  37.2940296  67.7342128  52.2266255  34.2210185
  67.9079005  51.6612678  33.4684037  68.2271019  53.0267150  34.0389675
  53.5519088  44.2380924  42.2873744  53.0072556  45.0140732  42.4194018
  54.4298438  44.5851729  42.1292865  68.7217300  51.5433020  31.3207083
  69.4168205  52.1639712  31.5394398  69.0640451  50.6928371  31.5959461
  70.6208724  48.9932725  32.8494414  71.1460048  49.3319998  32.1243734
  70.5331076  48.0579740  32.6657548  59.3136763  49.1546641  32.7570429
  59.4624884  49.8382105  32.1037102  60.1203207  49.1351731  33.2719885
  73.1314384  46.4607916  38.2322932  73.9661275  46.8997721  38.3960492
  73.2673513  45.9846570  37.4131178  57.0689396  45.1811818  33.7631498
  56.8235438  44.2774148  33.9611708  57.2385311  45.1828969  32.8210976
  62.8132169  51.6494771  30.2282177  62.2406136  52.2684958  29.7752648
  63.3864963  52.1994133  30.7622099  66.0329429  51.9331921  31.3590759
  66.9660102  51.8677483  31.5623634  65.9452641  52.7688188  30.9005292
  77.1772186  45.1775538  40.6677062  77.9075575  44.9160826  41.2284765
  76.5679132  44.4404260  40.7079130  52.2999825  42.2311924  37.9552161
  51.9802609  41.3777232  37.6626535  51.7533253  42.4460502  38.7110128
  56.0779732  44.9474365  41.6721667  56.2965742  45.8791473  41.6909701
  56.4905506  44.5882339  42.4576471  54.0824827  45.7833089  37.8011297
  54.0595516  45.8820776  36.8493180  54.3925464  46.6298240  38.1228463
  66.2321397  48.5665787  27.9404685  66.9357247  48.7715790  28.5562340
  65.5084046  49.1342549  28.2053768  67.0619207  44.3175648  34.0606955
  67.0054409  44.7744200  33.2214587  67.6147550  43.5566333  33.8829798
  70.8724013  40.1065380  34.8857074  70.6160947  39.7062016  35.7165282
  70.2476881  40.8209174  34.7607214  75.1836351  42.8461454  37.3928366
  74.6235909  42.9154643  38.1659928  74.5779854  42.6702438  36.6727862
  68.1408094  49.0048316  29.9903145  68.9753698  48.5729515  29.8080620
  67.9792437  48.8330330  30.9180039  67.7953987  45.5080430  31.3559484
  67.7402790  45.3424701  30.4147928  67.1700042  46.2156463  31.5121674
  52.5846502  40.7448494  45.1820906  53.2305365  40.2347448  45.6708131
  52.3763653  41.4817176  45.7564332  56.9243993  37.8916111  49.2795921
  57.7875454  37.5352916  49.4899245  56.3509403  37.5530006  49.9671325
  76.7692370  59.5217967  40.0858322  77.4070780  59.4024715  39.3821662
  76.6513212  60.4698811  40.1446274  73.5782076  59.4745396  40.0219846
  73.2400587  59.3586460  39.1340381  74.4471844  59.0736561  40.0020852
  69.4368892  61.3280872  36.0116737  68.8733757  61.2370809  35.2433025
  69.3221287  60.5080776  36.4919230  74.0601859  60.6280247  45.9806052
  74.0490500  60.2333046  45.1086555  74.2222498  59.8946320  46.5739823
  66.9833323  62.8232064  38.8500958  67.7754615  62.4822888  38.4347257
  67.2229974  62.9327039  39.7703111  75.0168450  64.9951840  31.3231202
  74.3656430  65.5805920  30.9365216  75.8112813  65.5258035  31.3826240
  68.9424077  62.0840977  31.7218336  69.7154953  61.5369964  31.5831212
  69.2949476  62.9485226  31.9332798  70.7809120  63.4117359  44.9285236
  70.4898986  64.3162990  44.8131902  71.4166104  63.4533887  45.6429305
  71.7065327  60.7894208  41.5186595  72.3028899  60.5650230  40.8043558
  71.7640298  60.0478953  42.1212043  71.2790355  58.2433643  29.3536786
  71.5315876  57.7215164  28.5920249  70.3414914  58.0799788  29.4563470
  76.3233638  57.2469421  37.1611530  77.1096727  56.8288844  36.8101947
  76.5872342  58.1515513  37.3293178  76.4943715  62.6842272  31.8600186
  75.8589548  62.7576898  32.5721091  76.1641122  63.2735870  31.1819266
  81.7242065  57.1844655  38.0644508  82.4567237  56.6143871  38.2982338
  80.9681421  56.7966255  38.5051014  70.9986644  60.1461749  31.5561161
  70.8822902  59.4706652  32.2242246  71.1088904  59.6594123  30.7393314
  73.3418185  59.6071896  35.2607851  72.9776392  59.0802517  35.9720772
  74.1985301  59.2170365  35.0874336  79.2467486  50.8966229  42.5239117
  78.9150810  51.7661640  42.3000332  78.6513099  50.5802513  43.2033147
  72.9823672  54.6361796  30.2569199  73.1498074  55.5042032  30.6239670
  72.7920841  54.7989077  29.3330488  75.7399005  63.0978775  41.9235029
  75.4399728  64.0003813  41.8150837  75.3950065  62.8310958  42.7756182
  69.1911487  59.5492571  37.9571734  68.2661983  59.4168786  38.1649426
  69.4395900  60.3286791  38.4541676  79.1396149  55.6161315  39.6032467
  78.2313026  55.5476723  39.3091228  79.0883745  56.0933260  40.4314292
  72.9612893  57.0919453  31.2415866  72.8412518  57.5376504  32.0801346
  72.2665481  57.4404771  30.6829404  66.5520298  59.1925845  38.7915523
  66.6812679  59.4460324  39.7054935  65.8717749  59.7853553  38.4720178
  70.7219785  69.8623095  34.8905997  70.6443815  70.8130920  34.9694478
  70.1181428  69.5168967  35.5480923  73.2137015  57.0350960  47.5467364
  72.4370349  57.5944881  47.5370229  73.8527578  57.5207743  48.0682234
  81.0057795  53.8177753  41.3810341  80.3632175  54.1110286  40.7350135
  80.5012724  53.7030674  42.1863537  78.6597959  57.5640926  32.0696200
  79.5715815  57.7968313  31.8943897  78.1507606  58.1477971  31.5071279
  71.4683387  59.8436414  47.1085331  72.2098071  60.3821458  46.8320155
  70.7620372  60.4702703  47.2656883  76.9438727  61.9865554  45.7057493
  77.3522083  61.5447965  44.9612125  76.2215988  61.4118182  45.9591685
  73.2969797  56.9238161  43.0791049  74.1430992  57.3477575  43.2225698
  73.2368434  56.2671785  43.7729613  77.2667541  62.5466745  39.4609781
  76.6376404  62.7112459  38.7585849  76.8793203  62.9608354  40.2320745
  81.1456773  63.4821183  36.8154145  80.4607811  63.8620084  36.2651178
  81.2300622  64.0916509  37.5486093  76.4469242  54.5842529  44.7372223
  76.2030174  55.3384590  44.2006499  76.7229172  54.9627877  45.5719470
  78.4007705  61.1281142  43.4149489  78.6124600  61.7712902  42.7383870
  78.3537453  60.2943458  42.9471419  76.0033934  53.7398962  40.3186061
  75.1418413  54.0380216  40.6102798  76.0296368  53.9569361  39.3867093
  72.8195503  62.2841153  36.7259867  73.2833849  62.5628856  35.9364489
  72.5552301  61.3824598  36.5432957  69.7119584  61.8312634  39.6639630
  70.2820941  62.2599903  39.0257114  70.3027696  61.5495219  40.3623815
  71.7564389  58.4064305  33.5349432  72.4588432  58.8585349  34.0023358
  71.4245018  57.7648124  34.1629325  70.2044751  56.9976062  47.9100641
  69.5743411  57.6792343  48.1436038  70.0980839  56.8859144  46.9653779
  79.5153533  64.0053097  41.5871846  80.3370976  63.6033284  41.3054528
  79.5115936  63.9021331  42.5387962  67.4504468  57.0292437  35.7950042
  66.6535632  57.1411131  36.3133538  67.2230061  57.3679089  34.9290932
  73.2810136  63.5537140  43.7432557  73.3454569  64.0157548  44.5790728
  72.5721060  62.9234505  43.8714866  87.6059526  60.3491846  37.9356818
  86.8523234  59.7799244  37.7800822  87.7407067  60.3154510  38.8827452
  72.9958154  65.2205248  33.6111537  72.8603829  66.0656784  34.0396385
  73.5367966  65.4224526  32.8477471  69.4825493  51.2996828  50.2725892
  69.0892439  50.7463026  50.9473536  70.2991634  51.6107406  50.6632410
  66.4487551  62.7380686  34.1839462  66.9612072  63.5323936  34.3345027
  67.1010264  62.0406976  34.1173063  68.2582436  65.8546442  36.2662215
  68.4349064  66.7764407  36.0783199  69.0539269  65.5404861  36.6956595
  72.3993454  52.7154707  47.8646149  73.1403168  53.3161860  47.7850611
  72.6311377  51.9732345  47.3064191  67.5434792  57.9011074  46.1424378
  67.4288308  56.9996331  46.4431477  66.6879310  58.1474771  45.7909195
  74.6226630  65.8428814  47.7411879  74.1790484  65.0565193  47.4232783
  75.2843844  66.0307965  47.0755770  69.3813751  67.3724616  42.2672557
  69.9321176  67.2441679  41.4949551  68.5425227  67.6719505  41.9167450
  76.7207868  66.1231614  45.7693280  76.7026344  66.9440495  45.2773549
  77.6427788  65.9985690  45.9943421  73.1780922  63.6375744  46.6116789
  73.7109259  62.8764032  46.3816097  72.6495003  63.3449396  47.3540943
  76.3450617  48.7435810  42.1410430  76.0014887  49.6337451  42.0649541
  76.7129580  48.5537467  41.2780015  64.4136468  61.0669340  34.9599032
  65.2511690  61.4766349  34.7432740  64.5914736  60.1268782  34.9299226
  76.3100900  58.7344421  30.6482865  75.7947524  59.5049026  30.8871253
  76.0378209  58.0609557  31.2715927  73.8948011  53.5794122  35.7068104
  73.0389607  53.1900972  35.5273743  74.3074963  53.6586082  34.8467889
  75.4247158  51.1140465  40.1059664  74.9211953  51.0770600  39.2927469
  75.7177765  52.0233208  40.1656320  71.6690044  51.1979195  39.1125845
  72.5343040  51.0022003  38.7531735  71.7367553  50.9689546  40.0395202
  81.2835174  61.4876776  32.5836039  80.5064617  61.1487935  32.1391201
  81.9626655  61.4929399  31.9091004  76.0987203  56.6071513  32.4742647
  75.7937339  56.9217662  33.3252790  77.0517645  56.6852933  32.5169980
  74.5433635  62.7661736  34.1235601  74.0154997  62.0314496  33.8108838
  74.0421138  63.5436413  33.8775569  79.5226481  60.9610757  39.2402647
  78.8650156  61.6510018  39.3282776  80.3266880  61.3507189  39.5836633
  69.2752363  53.4281403  36.4842212  69.8496115  53.2056584  35.7515405
  69.8623345  53.4970097  37.2370813  78.3331940  59.3155129  37.2906589
  78.8463822  59.9485121  37.7928298  78.9833164  58.7156325  36.9249949
  69.6021950  55.4585864  30.5038097  68.7659262  55.7960550  30.8247372
  69.4626719  55.3234843  29.5665234  71.5775030  50.3022651  35.2117282
  70.9239443  49.9871669  34.5873896  71.5355505  49.6798392  35.9377104
  72.6886235  60.5841947  27.1270574  71.7813297  60.3531200  27.3261723
  73.1857267  59.7879566  27.3144555  75.5954314  69.2939454  30.0467260
  74.9216013  69.5971151  30.6552218  75.9820136  70.0968534  29.6972717
  74.8112771  56.7904585  39.5364929  73.8935332  57.0119532  39.3786617
  75.2272914  56.8650896  38.6776637  75.5947819  58.1896001  34.6667609
  76.3419637  58.7017398  34.3574731  75.8639408  57.8680053  35.5272003
  73.8674469  60.6854541  31.6494564  72.9585688  60.4013574  31.7467033
  73.8969553  61.1053620  30.7897871  79.0993736  64.2961131  35.4185731
  78.6456063  63.4552041  35.4750922  78.4687703  64.9322529  35.7560511
  78.0426656  55.2253117  36.6486399  77.3049412  54.7130503  36.9796641
  78.2953429  54.7853499  35.8369676  77.5426675  66.1337628  36.3535549
  77.8349650  66.6942685  35.6347915  78.0525296  66.4266189  37.1088709
  78.1438283  48.0029369  37.2428168  78.4497160  47.1426732  36.9554083
  78.8690888  48.5946989  37.0427162  64.4362639  58.4060056  35.6309766
  64.2387039  57.8129416  34.9060832  63.8809303  58.1012266  36.3485705
  72.4159363  58.2983162  37.7504359  72.4707973  57.3456998  37.6746836
  71.6050565  58.4542601  38.2345657  73.5650557  62.2263285  28.9882642
  73.1269986  61.5099144  28.5288280  74.3060997  62.4539400  28.4267734
  70.3551723  56.9160222  35.5094738  69.5419588  57.2154392  35.9159930
  70.8510717  56.5215911  36.2269220  72.5060301  66.9117979  37.4429003
  72.4636479  67.1378825  36.5137535  73.4222999  66.6781353  37.5914804
  75.9525934  57.3802046  44.3409632  76.3075322  57.6073519  45.2004098
  76.5998066  57.7120423  43.7186887  81.6823671  60.5020482  35.0458961
  81.5441570  60.6922078  34.1180150  81.3259890  61.2639865  35.5027012
  81.7093051  62.5697009  40.0570232  82.1429558  62.4772298  40.9053286
  82.4224632  62.5454510  39.4190248  70.6226101  63.7881008  37.2390965
  71.4166700  63.2931328  37.0373540  69.9117794  63.2598871  36.8758671
  75.4420946  66.1699103  41.5903333  75.4957968  66.7390040  42.3581049
  74.5735727  66.3400988  41.2257370  66.9308865  57.9324089  33.3150718
  66.0006453  57.8708545  33.5320680  67.0266337  57.4100042  32.5187359
  82.5708600  62.6120710  42.5903118  82.7644491  63.5166520  42.8362393
  82.4709219  62.1528129  43.4241703  74.2244911  52.4978600  45.0893445
  73.5772826  53.1968550  44.9957922  74.9945927  52.9314744  45.4569693
  77.6323709  62.7627453  48.1643998  77.4809216  62.5338004  47.2474082
  77.6228389  63.7198054  48.1775343  74.4009046  60.3359365  43.1490265
  75.3301106  60.4870525  42.9759232  73.9800076  60.4243386  42.2938911
  73.1997377  64.3610030  40.9188802  73.0608463  63.9928814  41.7914741
  72.4111974  64.8757669  40.7472760  73.7945529  69.4619126  32.2614339
  73.9697285  68.9907169  33.0759962  73.1078317  70.0884892  32.4895600
  74.7502592  63.7391632  38.3077640  74.4152425  63.6992402  39.2035290
  74.2506538  63.0736348  37.8348050  68.7246836  59.1459262  43.8330221
  68.5866634  58.4139501  44.4341760  69.6351760  59.0568163  43.5514409
  77.6861784  61.0847667  28.5814700  77.0690955  60.3594495  28.4847753
  77.2178273  61.8457027  28.2381774  71.3529137  58.8579222  43.3213901
  72.0628756  58.2172414  43.2800519  71.3098445  59.1092117  44.2440082
  79.3415916  65.7946575  46.2420480  79.2828462  65.1105795  45.5751063
  79.7435434  66.5365565  45.7901106  68.3606615  72.6108489  39.0354199
  68.6003213  73.2427013  39.7133218  67.5175811  72.2596529  39.3219558
  69.4760330  55.3033091  27.7036004  68.5989796  55.1821892  27.3398251
  69.9518083  54.5119169  27.4514893  79.3433323  63.7586159  44.4734460
  78.4560102  63.4212081  44.5960859  79.9131874  63.0269190  44.7103225
  60.9962470  60.0910251  37.7977511  61.6833510  59.7771981  37.2098527
  60.8410599  60.9951615  37.5244763  72.8734476  68.4187611  41.4395703
  72.8004648  69.2242583  41.9515008  72.4311870  68.6179577  40.6143725
  72.6624256  67.6559381  34.9498525  71.8791778  68.1981062  35.0436749
  73.3617001  68.1733361  35.3492766  75.9720906  53.4654011  37.5932730
  76.4689606  52.7123973  37.2733800  75.2007888  53.5018328  37.0275939
  83.8250664  59.1694376  39.2351022  83.8140540  60.0519092  38.8644955
  82.9568043  58.8165927  39.0405559  75.3333160  68.3174445  43.5953862
  76.0461132  68.9521910  43.5229763  74.8423189  68.4138311  42.7793864
  77.0550687  62.2225698  35.1671153  76.1206966  62.3427161  34.9975858
  77.2327355  61.3198165  34.9031163  72.5555875  55.6071394  37.3204415
  72.1853662  55.0542434  38.0085320  73.0514967  55.0029527  36.7679415
  80.4423238  58.0643017  35.7021188  80.9083690  58.8971009  35.6281490
  80.8930739  57.5987999  36.4066446  70.3845073  66.0668889  44.4159433
  71.0854533  66.7005372  44.5688827  69.9140188  66.4083620  43.6555072
  78.5099469  64.4086839  32.7007340  78.7859313  64.2943433  33.6101214
  77.6403968  64.0104324  32.6619513  78.4139901  50.4323604  39.7412089
  77.5002981  50.6627831  39.9094296  78.8433002  50.5162048  40.5926121
  78.1846359  58.6213496  42.2411983  77.5317810  58.8689404  41.5864436
  78.5626739  57.8077635  41.9074460  75.1453533  68.6573190  36.3440153
  75.3275928  67.8394845  36.8067906  75.9686519  68.8740882  35.9065043
  75.4795699  67.5841375  33.6055202  76.0083465  67.0733829  32.9925364
  75.7423918  67.2683905  34.4700735  74.2333932  59.3633307  48.7278020
  73.5574570  59.2627437  49.3980395  75.0561566  59.2072521  49.1914017
  65.9812792  65.6005244  41.3490535  66.5666228  64.8548932  41.4818439
  65.7837630  65.9109201  42.2327199  68.8351447  68.6356491  36.3652978
  68.1661822  69.1202619  35.8817018  68.6964316  68.8825712  37.2796356
  72.9756715  70.6700235  42.9635636  73.5275023  70.8331856  43.7284721
  73.3162909  71.2604673  42.2915661  77.8267590  65.4961492  48.8184290
  78.3707494  66.1091451  48.3239245  77.2454435  66.0541071  49.3351303
  64.2039024  56.8974946  33.1448910  64.4992465  55.9885625  33.0915964
  63.3027060  56.8762686  32.8229912  76.1125103  68.6182210  39.9499318
  75.9876242  67.8171950  39.4410264  76.7704194  69.1128404  39.4613288
  78.1760011  66.4191230  41.5778868  77.2290347  66.2996582  41.5057195
  78.5242784  65.5313729  41.6605130  65.9326865  54.5789044  33.2688235
  65.6039572  53.6986423  33.0863341  66.2866236  54.5236713  34.1564624
  75.1806444  66.2143947  37.7783221  75.0331407  65.2860654  37.9590791
  76.0059938  66.2364037  37.2940296  69.0468689  54.8662014  33.6363713
  69.3864761  55.3947935  32.9142321  69.4940809  55.2042420  34.4122279
  78.7840566  67.0372505  38.8648093  79.7087114  66.8315367  38.7272544
  78.6155870  66.7888907  39.7737435  71.0336836  53.3636635  31.8357005
  71.7545198  53.7417888  31.3320722  70.4102140  54.0825512  31.9391983
  75.1767959  54.0681784  32.7715338  75.3931573  54.9506422  32.4704166
  74.6962026  53.6767998  32.0420980  69.9167180  57.0267498  39.3486082
  69.7711761  57.3407801  40.2410364  69.4392384  57.6452398  38.7956981
  71.7763563  54.0170046  39.3966972  71.7625132  53.1211139  39.0599270
  72.4935991  54.0240709  40.0305258  73.6289694  54.4507386  41.4420099
  73.3707471  55.3724456  41.4404430  73.0974734  54.0537820  42.1320563
  78.5735882  67.5558173  34.2210185  78.7472760  66.9904595  33.4684037
  79.0664774  68.3559068  34.0389675  71.1800459  52.8984426  34.6654542
  71.3016370  51.9701072  34.8645430  70.8902501  52.9123112  33.7532857
  74.0491649  50.5839336  37.8021262  74.0713346  50.6478669  36.8473241
  74.4659708  49.7443845  37.9961768  84.4275274  60.3194596  35.8400484
  84.8706420  59.5701921  35.4419608  83.5501784  60.3104732  35.4574216
  79.5611055  66.8724937  31.3207083  80.2561959  67.4931630  31.5394398
  79.9034205  66.0220288  31.5959461  81.4602478  64.3224643  32.8494414
  81.9853802  64.6611916  32.1243734  81.3724831  63.3871658  32.6657548
  73.1222527  68.2358716  44.9784290  73.4309653  67.9907863  45.8506990
  73.9198009  68.4405355  44.4903161  73.1443139  70.3896626  37.2089667
  72.7048129  69.8973005  37.9022524  73.8951256  69.8469594  36.9681742
  65.6235478  66.5808167  37.2114295  66.4493498  66.2811939  36.8312939
  65.2729530  65.8115789  37.6604084  70.5917011  65.9334635  39.2811969
  69.9697020  65.2705340  38.9814196  71.2621878  65.9595767  38.5985616
  63.8244083  64.4994493  38.1703229  62.9875991  64.0716668  37.9887230
  63.7967728  64.6926937  39.1074020  70.6641538  54.4116423  48.8744475
  70.7129694  55.2878546  48.4922244  71.2064053  53.8693816  48.3016118
  81.1496384  64.9557546  48.1545612  80.3591928  64.9381685  47.6150111
  80.9129739  65.4945840  48.9094648  81.2694259  61.8050013  45.4678340
  81.3192264  61.6400020  46.4093863  81.1608182  60.9377272  45.0776221
  70.1530518  64.4838559  32.7570429  70.3018638  65.1674023  32.1037102
  70.9596961  64.4643649  33.2719885  78.5598022  57.7880941  46.7837647
  79.4607884  57.6487406  46.4921645  78.6345996  57.9535396  47.7235824
  72.8940827  55.1647796  45.6290833  72.0244136  55.4581362  45.3573422
  73.1300307  55.7488241  46.3498097  82.7712456  64.2246954  45.7120362
  82.4797264  64.5876935  46.5483823  82.1584587  63.5113963  45.5333694
  83.9708138  61.7899834  38.2322932  84.8055030  62.2289638  38.3960492
  84.1067267  61.3138487  37.4131178  81.0199644  59.3479569  44.1800420
  81.4953766  59.5407215  43.3719271  80.0965210  59.4038755  43.9343803
  67.9083151  60.5103736  33.7631498  67.6629193  59.6066066  33.9611708
  68.0779065  60.5120887  32.8210976  75.5979861  51.3827413  43.1456254
  76.1161805  52.1188439  42.8202742  75.2434993  51.6891406  43.9803013
  67.1778798  56.2432094  31.2617660  66.4848043  56.3176449  30.6057696
  66.9330550  55.4792437  31.7839176  75.8492455  47.8027695  38.6657150
  76.1294209  47.1350884  39.2917577  76.6343062  47.9956791  38.1531814
  73.6525923  66.9786689  30.2282177  73.0799890  67.5976876  29.7752648
  74.2258717  67.5286051  30.7622099  79.7201313  56.2245329  42.4128725
  80.6718736  56.3243427  42.4340949  79.5504764  55.4323598  42.9226810
  77.7415693  53.3100912  42.5988126  77.1465625  53.5905925  41.9034615
  77.4565389  53.7994813  43.3704867  76.8723183  67.2623839  31.3590759
  77.8053856  67.1969401  31.5623634  76.7846396  68.0980106  30.9005292
  79.5011200  66.5789709  28.3194706  79.4224831  66.2449573  29.2130464
  80.3220867  67.0711477  28.3186179  82.1989391  59.4451449  41.5271025
  82.1665711  58.5067449  41.7130709  82.8090015  59.5235485  40.7936850
  74.0372722  58.3147502  27.5698229  74.9831827  58.1853710  27.6386647
  73.6586967  57.5762164  28.0467657  82.3483879  56.2362492  41.5729308
  81.8322928  55.4520949  41.3859237  83.2323828  55.9081209  41.7375828
  80.0094606  49.9803508  37.5325121  79.8119428  49.6718596  38.4168453
  80.6194312  50.7065147  37.6623051  88.0165941  60.5067456  40.6677062
  88.7469329  60.2452744  41.2284765  87.4072886  59.7696178  40.7079130
  86.0981238  58.6475318  41.2651513  85.3714402  58.5131283  40.6568005
  85.6828525  58.9552147  42.0708231  73.9211414  62.3665248  49.0298886
  74.8414424  62.5443847  49.2238933  73.8860997  61.4221293  48.8778585
  72.2215639  56.2397478  27.5053114  71.3147094  55.9430591  27.5815828
  72.4991620  55.9427296  26.6387401  66.9173487  60.2766283  41.6721667
  67.1359497  61.2083390  41.6909701  67.3299261  59.9174257  42.4576471
  73.8377705  50.7834368  33.6597356  73.0278433  50.4381453  34.0352602
  74.5262122  50.4741912  34.2484967  75.7668253  49.8612415  35.2821652
  76.3199292  50.2807868  35.9411675  76.0038339  48.9348163  35.3244608
  71.7901352  55.8499488  51.0624416  71.6898079  56.7993845  50.9936507
  71.5722894  55.5217727  50.1900486  70.9914424  53.0984413  27.6465094
  71.8533588  53.4239312  27.9060911  71.1764768  52.3115909  27.1338159
  63.0081839  61.1806753  39.9245282  62.3145311  60.7660706  39.4115237
  63.7554830  61.2227290  39.3278701  79.1447060  51.9712940  34.7900317
  78.5645729  52.6297744  34.4078369  78.8782993  51.1490284  34.3787734
  77.5950626  51.3717997  36.9921637  78.0950405  51.4834532  36.1835956
  78.2386234  51.0679050  37.6322445  71.6532622  59.2796627  49.8789478
  71.1699704  60.0796987  50.0853367  71.7393561  59.2904572  48.9256922
  64.9218582  61.1125007  37.8011297  64.8989270  61.2112694  36.8493180
  65.2319218  61.9590158  38.1228463  67.5805960  63.1701162  41.9157912
  68.5349213  63.1385104  41.8487843  67.3818483  62.7091786  42.7308138
  68.1705342  61.7402278  44.4828709  68.9898231  62.2346357  44.5063547
  68.4442150  60.8234246  44.4546277  77.9271938  54.1313030  33.8456665
  77.0397793  54.4162681  33.6276860  78.3425927  53.9706794  32.9983942
  81.2786474  54.1559551  37.5611004  82.0546864  54.6456004  37.8335621
  80.5534608  54.5817605  38.0182874  83.7159033  54.8687170  38.6184945
  84.3103524  54.6282906  37.9078253  83.7885617  54.1494301  39.2458481
  65.9356189  68.7120781  38.9328109  65.8010656  67.9521182  38.3666108
  65.5188251  69.4361681  38.4656898  77.0715152  63.8957705  27.9404685
  77.7751002  64.1007707  28.5562340  76.3477800  64.4634467  28.2053768
  77.9012962  59.6467566  34.0606955  77.8448163  60.1036118  33.2214587
  78.4541304  58.8858251  33.8829798  81.7117768  55.4357298  34.8857074
  81.4554702  55.0353934  35.7165282  81.0870636  56.1501092  34.7607214
  86.0230106  58.1753371  37.3928366  85.4629664  58.2446561  38.1659928
  85.4173609  57.9994356  36.6727862  69.0925314  69.6090098  39.1446552
  68.9757699  70.5535531  39.0425242  68.2717761  69.3063660  39.5332351
  78.9801849  64.3340234  29.9903145  79.8147453  63.9021433  29.8080620
  78.8186192  64.1622248  30.9180039  78.6347741  60.8372347  31.3559484
  78.5796545  60.6716619  30.4147928  78.0093796  61.5448380  31.5121674
  75.9493648  63.1421259  50.6813047  76.8184808  63.3161911  50.3199682
  75.4700400  63.9615676  50.5588776  71.9443867  50.3380456  30.9344803
  71.9322536  51.2822296  31.0913073  72.8367288  50.1550602  30.6404264
  70.1179829  70.2618360  42.3602481  71.0207075  70.2941970  42.6768975
  69.8917199  69.3318811  42.3748816  71.8733431  69.0149347  39.0212559
  70.9229062  69.0151208  38.9076931  72.1765917  68.2682081  38.5048594
  75.7595986  46.9323233  35.1890739  74.9928382  46.3781720  35.3347422
  76.1706691  47.0045102  36.0504891  67.7637747  53.2208029  49.2795921
  68.6269209  52.8644834  49.4899245  67.1903158  52.8821924  49.9671325
  87.6086124  74.8509885  40.0858322  88.2464534  74.7316632  39.3821662
  87.4906967  75.7990729  40.1446274  84.4175830  74.8037313  40.0219846
  84.0794342  74.6878378  39.1340381  85.2865599  74.4028478  40.0020852
  80.2762646  76.6572790  36.0116737  79.7127511  76.5662727  35.2433025
  80.1615041  75.8372694  36.4919230  84.8995613  75.9572165  45.9806052
  84.8884254  75.5624963  45.1086555  85.0616253  75.2238238  46.5739823
  77.8227078  78.1523981  38.8500958  78.6148370  77.8114806  38.4347257
  78.0623728  78.2618956  39.7703111  85.8562205  80.3243757  31.3231202
  85.2050185  80.9097838  30.9365216  86.6506568  80.8549952  31.3826240
  79.7817832  77.4132895  31.7218336  80.5548708  76.8661882  31.5831212
  80.1343231  78.2777144  31.9332798  81.6202874  78.7409277  44.9285236
  81.3292740  79.6454908  44.8131902  82.2559859  78.7825804  45.6429305
  82.5459081  76.1186125  41.5186595  83.1422654  75.8942148  40.8043558
  82.6034053  75.3770871  42.1212043  82.1184110  73.5725561  29.3536786
  82.3709630  73.0507082  28.5920249  81.1808669  73.4091706  29.4563470
  87.1627393  72.5761339  37.1611530  87.9490482  72.1580762  36.8101947
  87.4266097  73.4807431  37.3293178  87.3337470  78.0134189  31.8600186
  86.6983303  78.0868816  32.5721091  87.0034876  78.6027788  31.1819266
  92.5635820  72.5136572  38.0644508  93.2960992  71.9435789  38.2982338
  91.8075175  72.1258173  38.5051014  81.8380398  75.4753667  31.5561161
  81.7216657  74.7998570  32.2242246  81.9482658  74.9886041  30.7393314
  84.1811939  74.9363814  35.2607851  83.8170147  74.4094435  35.9720772
  85.0379055  74.5462283  35.0874336  90.0861240  66.2258146  42.5239117
  89.7544565  67.0953557  42.3000332  89.4906853  65.9094430  43.2033147
  83.8217426  69.9653713  30.2569199  83.9891829  70.8333950  30.6239670
  83.6314595  70.1280995  29.3330488  86.5792760  78.4270692  41.9235029
  86.2793483  79.3295731  41.8150837  86.2343819  78.1602876  42.7756182
  80.0305241  74.8784489  37.9571734  79.1055738  74.7460703  38.1649426
  80.2789654  75.6578708  38.4541676  89.9789903  70.9453232  39.6032467
  89.0706781  70.8768641  39.3091228  89.9277499  71.4225177  40.4314292
  83.8006647  72.4211371  31.2415866  83.6806272  72.8668422  32.0801346
  83.1059236  72.7696689  30.6829404  77.3914052  74.5217763  38.7915523
  77.5206433  74.7752242  39.7054935  76.7111503  75.1145471  38.4720178
  81.5613539  85.1915013  34.8905997  81.4837569  86.1422838  34.9694478
  80.9575183  84.8460885  35.5480923  84.0530769  72.3642878  47.5467364
  83.2764103  72.9236798  47.5370229  84.6921332  72.8499661  48.0682234
  91.8451550  69.1469671  41.3810341  91.2025930  69.4402204  40.7350135
  91.3406478  69.0322591  42.1863537  89.4991713  72.8932844  32.0696200
  90.4109570  73.1260231  31.8943897  88.9901360  73.4769888  31.5071279
  82.3077141  75.1728331  47.1085331  83.0491826  75.7113375  46.8320155
  81.6014127  75.7994620  47.2656883  87.7832481  77.3157472  45.7057493
  88.1915837  76.8739882  44.9612125  87.0609743  76.7410099  45.9591685
  84.1363551  72.2530079  43.0791049  84.9824746  72.6769492  43.2225698
  84.0762189  71.5963703  43.7729613  88.1061296  77.8758663  39.4609781
  87.4770158  78.0404377  38.7585849  87.7186958  78.2900272  40.2320745
  91.9850528  78.8113100  36.8154145  91.3001566  79.1912002  36.2651178
  92.0694377  79.4208427  37.5486093  87.2862996  69.9134447  44.7372223
  87.0423928  70.6676508  44.2006499  87.5622927  70.2919795  45.5719470
  89.2401459  76.4573059  43.4149489  89.4518354  77.1004819  42.7383870
  89.1931207  75.6235376  42.9471419  86.8427688  69.0690880  40.3186061
  85.9812167  69.3672134  40.6102798  86.8690123  69.2861279  39.3867093
  83.6589258  77.6133071  36.7259867  84.1227603  77.8920774  35.9364489
  83.3946056  76.7116515  36.5432957  80.5513339  77.1604552  39.6639630
  81.1214696  77.5891821  39.0257114  81.1421451  76.8787137  40.3623815
  82.5958144  73.7356223  33.5349432  83.2982187  74.1877267  34.0023358
  82.2638772  73.0940042  34.1629325  81.0438505  72.3267980  47.9100641
  80.4137166  73.0084260  48.1436038  80.9374593  72.2151061  46.9653779
  76.3383478  71.9939776  38.8366565  75.5482532  72.2497304  38.3606676
  76.8294725  72.8088113  38.9418606  90.3547287  79.3345015  41.5871846
  91.1764731  78.9325202  41.3054528  90.3509690  79.2313249  42.5387962
  78.2898223  72.3584355  35.7950042  77.4929386  72.4703049  36.3133538
  78.0623815  72.6971007  34.9290932  84.1203891  78.8829058  43.7432557
  84.1848323  79.3449465  44.5790728  83.4114814  78.2526423  43.8714866
  74.6221181  72.2470266  41.2681556  74.8729219  73.1317276  41.5339132
  75.1580729  72.0674868  40.4956648  98.4453280  75.6783763  37.9356818
  97.6916989  75.1091161  37.7800822  98.5800821  75.6446428  38.8827452
  83.8351908  80.5497166  33.6111537  83.6997583  81.3948701  34.0396385
  84.3761721  80.7516443  32.8477471  80.3219248  66.6288745  50.2725892
  79.9286193  66.0754944  50.9473536  81.1385388  66.9399324  50.6632410
  77.2881306  78.0672604  34.1839462  77.8005826  78.8615854  34.3345027
  77.9404018  77.3698894  34.1173063  79.0976190  81.1838360  36.2662215
  79.2742819  82.1056325  36.0783199  79.8933024  80.8696779  36.6956595
  83.2387209  68.0446625  47.8646149  83.9796922  68.6453778  47.7850611
  83.4705132  67.3024262  47.3064191  78.3828547  73.2302992  46.1424378
  78.2682062  72.3288249  46.4431477  77.5273065  73.4766689  45.7909195
  85.4620385  81.1720732  47.7411879  85.0184239  80.3857111  47.4232783
  86.1237598  81.3599883  47.0755770  80.2207506  82.7016534  42.2672557
  80.7714931  82.5733597  41.4949551  79.3818982  83.0011423  41.9167450
  87.5601623  81.4523532  45.7693280  87.5420098  82.2732413  45.2773549
  88.4821543  81.3277607  45.9943421  84.0174677  78.9667662  46.6116789
  84.5503014  78.2055950  46.3816097  83.4888758  78.6741313  47.3540943
  87.1844372  64.0727727  42.1410430  86.8408641  64.9629369  42.0649541
  87.5523334  63.8829385  41.2780015  75.2530222  76.3961258  34.9599032
  76.0905444  76.8058266  34.7432740  75.4308490  75.4560700  34.9299226
  87.1494655  74.0636339  30.6482865  86.6341278  74.8340943  30.8871253
  86.8771963  73.3901475  31.2715927  84.7341766  68.9086039  35.7068104
  83.8783362  68.5192890  35.5273743  85.1468717  68.9878000  34.8467889
  86.2640912  66.4432383  40.1059664  85.7605708  66.4062518  39.2927469
  86.5571519  67.3525125  40.1656320  82.5083798  66.5271112  39.1125845
  83.3736795  66.3313921  38.7531735  82.5761307  66.2981464  40.0395202
  92.1228929  76.8168693  32.5836039  91.3458371  76.4779853  32.1391201
  92.8020410  76.8221316  31.9091004  86.9380958  71.9363431  32.4742647
  86.6331093  72.2509580  33.3252790  87.8911400  72.0144851  32.5169980
  85.3827390  78.0953654  34.1235601  84.8548751  77.3606414  33.8108838
  84.8814892  78.8728330  33.8775569  90.3620236  76.2902674  39.2402647
  89.7043910  76.9801936  39.3282776  91.1660635  76.6799106  39.5836633
  80.1146117  68.7573320  36.4842212  80.6889869  68.5348502  35.7515405
  80.7017100  68.8262015  37.2370813  89.1725694  74.6447047  37.2906589
  89.6857576  75.2777039  37.7928298  89.8226918  74.0448243  36.9249949
  80.4415704  70.7877781  30.5038097  79.6053017  71.1252468  30.8247372
  80.3020474  70.6526761  29.5665234  82.4168785  65.6314569  35.2117282
  81.7633197  65.3163586  34.5873896  82.3749259  65.0090310  35.9377104
  83.5279990  75.9133864  27.1270574  82.6207051  75.6823118  27.3261723
  84.0251022  75.1171484  27.3144555  86.4348069  84.6231371  30.0467260
  85.7609767  84.9263068  30.6552218  86.8213891  85.4260452  29.6972717
  85.6506525  72.1196503  39.5364929  84.7329087  72.3411450  39.3786617
  86.0666669  72.1942813  38.6776637  86.4341573  73.5187918  34.6667609
  87.1813392  74.0309316  34.3574731  86.7033163  73.1971971  35.5272003
  84.7068223  76.0146459  31.6494564  83.7979442  75.7305492  31.7467033
  84.7363307  76.4345538  30.7897871  89.9387491  79.6253049  35.4185731
  89.4849818  78.7843959  35.4750922  89.3081457  80.2614447  35.7560511
  88.8820410  70.5545035  36.6486399  88.1443167  70.0422421  36.9796641
  89.1347184  70.1145416  35.8369676  88.3820430  81.4629545  36.3535549
  88.6743404  82.0234602  35.6347915  88.8919050  81.7558106  37.1088709
  88.9832037  63.3321287  37.2428168  89.2890914  62.4718650  36.9554083
  89.7084642  63.9238907  37.0427162  75.2756394  73.7351973  35.6309766
  75.0780793  73.1421334  34.9060832  74.7203058  73.4304183  36.3485705
  83.2553117  73.6275080  37.7504359  83.3101727  72.6748916  37.6746836
  82.4444319  73.7834519  38.2345657  84.4044311  77.5555203  28.9882642
  83.9663741  76.8391062  28.5288280  85.1454752  77.7831318  28.4267734
  81.1945477  72.2452139  35.5094738  80.3813343  72.5446310  35.9159930
  81.6904471  71.8507828  36.2269220  83.3454055  82.2409896  37.4429003
  83.3030234  82.4670743  36.5137535  84.2616754  82.0073271  37.5914804
  86.7919689  72.7093964  44.3409632  87.1469077  72.9365437  45.2004098
  87.4391820  73.0412341  43.7186887  92.5217426  75.8312400  35.0458961
  92.3835324  76.0213996  34.1180150  92.1653645  76.5931783  35.5027012
  80.6859552  69.8170495  41.1255973  81.3258931  69.6759254  40.4278936
  79.8537082  69.5305008  40.7494575  92.5486805  77.8988927  40.0570232
  92.9823312  77.8064216  40.9053286  93.2618386  77.8746427  39.4190248
  81.4619856  79.1172925  37.2390965  82.2560454  78.6223246  37.0373540
  80.7511548  78.5890789  36.8758671  86.2814700  81.4991021  41.5903333
  86.3351723  82.0681957  42.3581049  85.4129482  81.6692906  41.2257370
  77.7702619  73.2616007  33.3150718  76.8400207  73.2000463  33.5320680
  77.8660091  72.7391960  32.5187359  77.6888168  69.7870820  35.9028960
  77.9494986  70.7016153  35.7938120  78.5105341  69.3195263  36.0525573
  79.1613094  71.2008577  43.0727784  79.8336147  70.9925939  42.4240433
  78.3342880  71.0030663  42.6333017  93.4102355  77.9412627  42.5903118
  93.6038245  78.8458438  42.8362393  93.3102973  77.4820047  43.4241703
  85.0638666  67.8270518  45.0893445  84.4166581  68.5260468  44.9957922
  85.8339681  68.2606662  45.4569693  88.4717464  78.0919370  48.1643998
  88.3202970  77.8629922  47.2474082  88.4622143  79.0489972  48.1775343
  85.2402800  75.6651283  43.1490265  86.1694860  75.8162443  42.9759232
  84.8193830  75.7535304  42.2938911  84.0391132  79.6901947  40.9188802
  83.9002218  79.3220732  41.7914741  83.2505728  80.2049587  40.7472760
  84.6339284  84.7911044  32.2614339  84.8091039  84.3199087  33.0759962
  83.9472072  85.4176810  32.4895600  85.5896347  79.0683550  38.3077640
  85.2546180  79.0284320  39.2035290  85.0900293  78.4028266  37.8348050
  79.5640591  74.4751180  43.8330221  79.4260389  73.7431419  44.4341760
  80.4745514  74.3860080  43.5514409  88.5255539  76.4139584  28.5814700
  87.9084709  75.6886413  28.4847753  88.0572027  77.1748945  28.2381774
  82.1922892  74.1871139  43.3213901  82.9022510  73.5464332  43.2800519
  82.1492200  74.4384034  44.2440082  90.1809670  81.1238493  46.2420480
  90.1222216  80.4397713  45.5751063  90.5829189  81.8657483  45.7901106
  80.9051826  71.1736357  45.1409541  80.3689183  70.7227096  45.7931137
  80.3168534  71.3082266  44.3980005  79.2000369  87.9400407  39.0354199
  79.4396967  88.5718931  39.7133218  78.3569566  87.5888447  39.3219558
  80.3154085  70.6325009  27.7036004  79.4383551  70.5113810  27.3398251
  80.7911838  69.8411087  27.4514893  90.1827078  79.0878077  44.4734460
  89.2953856  78.7503999  44.5960859  90.7525629  78.3561108  44.7103225
  71.8356225  75.4202168  37.7977511  72.5227264  75.1063899  37.2098527
  71.6804353  76.3243533  37.5244763  76.6390947  70.3092365  42.2262535
  76.5549136  69.7018035  41.4912945  75.8173653  70.8001383  42.2272031
  83.7128231  83.7479529  41.4395703  83.6398402  84.5534501  41.9515008
  83.2705624  83.9471495  40.6143725  83.5018011  82.9851299  34.9498525
  82.7185532  83.5272979  35.0436749  84.2010756  83.5025279  35.3492766
  86.8114661  68.7945929  37.5932730  87.3083360  68.0415891  37.2733800
  86.0401642  68.8310245  37.0275939  94.6644418  74.4986294  39.2351022
  94.6534294  75.3811010  38.8644955  93.7961798  74.1457845  39.0405559
  86.1726914  83.6466363  43.5953862  86.8854887  84.2813828  43.5229763
  85.6816943  83.7430229  42.7793864  87.8944441  77.5517616  35.1671153
  86.9600720  77.6719078  34.9975858  88.0721110  76.6490083  34.9031163
  83.3949629  70.9363312  37.3204415  83.0247417  70.3834352  38.0085320
  83.8908722  70.3321445  36.7679415  91.2816993  73.3934935  35.7021188
  91.7477445  74.2262927  35.6281490  91.7324493  72.9279917  36.4066446
  81.2238828  81.3960807  44.4159433  81.9248287  82.0297290  44.5688827
  80.7533943  81.7375538  43.6555072  89.3493224  79.7378756  32.7007340
  89.6253068  79.6235351  33.6101214  88.4797723  79.3396241  32.6619513
  89.2533655  65.7615522  39.7412089  88.3396735  65.9919749  39.9094296
  89.6826757  65.8453966  40.5926121  89.0240114  73.9505414  42.2411983
  88.3711564  74.1981321  41.5864436  89.4020494  73.1369552  41.9074460
  85.9847288  83.9865107  36.3440153  86.1669682  83.1686763  36.8067906
  86.8080274  84.2032799  35.9065043  86.3189453  82.9133292  33.6055202
  86.8477220  82.4025747  32.9925364  86.5817673  82.5975823  34.4700735
  85.0727687  74.6925225  48.7278020  84.3968324  74.5919354  49.3980395
  85.8955321  74.5364439  49.1914017  76.8206546  80.9297162  41.3490535
  77.4059983  80.1840850  41.4818439  76.6231385  81.2401118  42.2327199
  79.6745201  83.9648409  36.3652978  79.0055577  84.4494537  35.8817018
  79.5358071  84.2117629  37.2796356  71.4124201  73.5002762  40.0694978
  71.4508300  72.9666353  40.8632097  70.9064494  72.9737967  39.4505956
  83.8150470  85.9992153  42.9635636  84.3668778  86.1623774  43.7284721
  84.1556663  86.5896590  42.2915661  78.7914963  68.3467302  43.5657521
  78.8556290  69.2082133  43.1534918  78.7282083  67.7341304  42.8329879
  78.2667236  70.4190435  47.2130555  78.8939274  70.0367512  47.8268079
  77.4095154  70.2004637  47.5786247  88.6661344  80.8253410  48.8184290
  89.2101248  81.4383368  48.3239245  88.0848189  81.3832988  49.3351303
  75.0432778  72.2266864  33.1448910  75.3386219  71.3177542  33.0915964
  74.1420814  72.2054603  32.8229912  86.9518857  83.9474128  39.9499318
  86.8269997  83.1463868  39.4410264  87.6097948  84.4420321  39.4613288
  78.5727025  70.3022861  39.1276458  77.8513611  70.9158828  38.9883932
  79.3620281  70.8380625  39.0493104  89.0153766  81.7483148  41.5778868
  88.0684101  81.6288499  41.5057195  89.3636539  80.8605646  41.6605130
  81.3753339  67.6377287  45.4017110  81.8987741  67.8839584  46.1643419
  81.1565672  68.4697322  44.9820248  76.7720620  69.9080962  33.2688235
  76.4433326  69.0278341  33.0863341  77.1259991  69.8528630  34.1564624
  86.0200199  81.5435864  37.7783221  85.8725161  80.6152572  37.9590791
  86.8453692  81.5655955  37.2940296  79.8862443  70.1953931  33.6363713
  80.2258516  70.7239853  32.9142321  80.3334564  70.5334338  34.4122279
  89.6234321  82.3664423  38.8648093  90.5480868  82.1607284  38.7272544
  89.4549624  82.1180824  39.7737435  82.5805884  68.5790982  43.0866781
  82.2402704  67.7798795  43.4887461  81.8744890  68.8792693  42.5143614
  83.2322356  65.6640295  41.5394104  84.0548425  65.1900773  41.4172994
  83.4760419  66.4430778  42.0392790  81.8730590  68.6928553  31.8357005
  82.5938953  69.0709806  31.3320722  81.2495894  69.4117430  31.9391983
  86.0161713  69.3973702  32.7715338  86.2325328  70.2798340  32.4704166
  85.5355780  69.0059915  32.0420980  80.7560935  72.3559415  39.3486082
  80.6105515  72.6699718  40.2410364  80.2786138  72.9744316  38.7956981
  82.6157317  69.3461963  39.3966972  82.6018886  68.4503057  39.0599270
  83.3329746  69.3532627  40.0305258  84.4683448  69.7799303  41.4420099
  84.2101226  70.7016374  41.4404430  83.9368488  69.3829738  42.1320563
  89.4129637  82.8850091  34.2210185  89.5866514  82.3196513  33.4684037
  89.9058528  83.6850985  34.0389675  75.2306597  74.8964760  42.2873744
  74.6860065  75.6724568  42.4194018  76.1085947  75.2435564  42.1292865
  82.0194213  68.2276343  34.6654542  82.1410125  67.2992990  34.8645430
  81.7296256  68.2415029  33.7532857  84.8885404  65.9131254  37.8021262
  84.9107101  65.9770587  36.8473241  85.3053463  65.0735763  37.9961768
  95.2669028  75.6486513  35.8400484  95.7100174  74.8993839  35.4419608
  94.3895538  75.6396650  35.4574216  90.4004809  82.2016855  31.3207083
  91.0955714  82.8223548  31.5394398  90.7427959  81.3512206  31.5959461
  76.0172619  74.0234656  45.1803900  75.2754355  74.1717291  45.7668531
  75.6965363  74.2842922  44.3170650  92.2996232  79.6516560  32.8494414
  92.8247557  79.9903833  32.1243734  92.2118585  78.7163576  32.6657548
  83.9616281  83.5650634  44.9784290  84.2703408  83.3199781  45.8506990
  84.7591763  83.7697273  44.4903161  83.9836893  85.7188544  37.2089667
  83.5441884  85.2264922  37.9022524  84.7345010  85.1761511  36.9681742
  76.4629232  81.9100085  37.2114295  77.2887252  81.6103856  36.8312939
  76.1123284  81.1407707  37.6604084  81.4310765  81.2626553  39.2811969
  80.8090775  80.5997258  38.9814196  82.1015632  81.2887685  38.5985616
  74.6637837  79.8286411  38.1703229  73.8269746  79.4008585  37.9887230
  74.6361483  80.0218854  39.1074020  81.5035293  69.7408341  48.8744475
  81.5523448  70.6170464  48.4922244  82.0457807  69.1985734  48.3016118
  91.9890139  80.2849464  48.1545612  91.1985682  80.2673603  47.6150111
  91.7523493  80.8237758  48.9094648  92.1088014  77.1341930  45.4678340
  92.1586019  76.9691938  46.4093863  92.0001937  76.2669190  45.0776221
  80.9924272  79.8130476  32.7570429  81.1412393  80.4965941  32.1037102
  81.7990716  79.7935566  33.2719885  89.3991776  73.1172859  46.7837647
  90.3001639  72.9779323  46.4921645  89.4739750  73.2827313  47.7235824
  83.7334581  70.4939713  45.6290833  82.8637891  70.7873279  45.3573422
  83.9694062  71.0780158  46.3498097  93.6106210  79.5538872  45.7120362
  93.3191019  79.9168853  46.5483823  92.9978342  78.8405880  45.5333694
  94.8101893  77.1191752  38.2322932  95.6448784  77.5581556  38.3960492
  94.9461022  76.6430405  37.4131178  91.8593399  74.6771487  44.1800420
  92.3347520  74.8699133  43.3719271  90.9358964  74.7330672  43.9343803
  78.7476905  75.8395654  33.7631498  78.5022947  74.9357984  33.9611708
  78.9172820  75.8412804  32.8210976  86.4373615  66.7119330  43.1456254
  86.9555559  67.4480357  42.8202742  86.0828748  67.0183323  43.9803013
  78.0172553  71.5724011  31.2617660  77.3241798  71.6468366  30.6057696
  77.7724305  70.8084355  31.7839176  86.6886209  63.1319613  38.6657150
  86.9687963  62.4642802  39.2917577  87.4736816  63.3248708  38.1531814
  84.4919678  82.3078607  30.2282177  83.9193645  82.9268794  29.7752648
  85.0652471  82.8577968  30.7622099  90.5595068  71.5537247  42.4128725
  91.5112491  71.6535344  42.4340949  90.3898518  70.7615515  42.9226810
  88.5809447  68.6392830  42.5988126  87.9859379  68.9197843  41.9034615
  88.2959144  69.1286731  43.3704867  87.7116938  82.5915757  31.3590759
  88.6447611  82.5261318  31.5623634  87.6240150  83.4272024  30.9005292
  90.3404954  81.9081627  28.3194706  90.2618586  81.5741491  29.2130464
  91.1614621  82.4003395  28.3186179  93.0383145  74.7743366  41.5271025
  93.0059466  73.8359367  41.7130709  93.6483769  74.8527403  40.7936850
  84.8766476  73.6439419  27.5698229  85.8225581  73.5145627  27.6386647
  84.4980721  72.9054081  28.0467657  93.1877634  71.5654410  41.5729308
  92.6716683  70.7812866  41.3859237  94.0717582  71.2373126  41.7375828
  90.8488361  65.3095425  37.5325121  90.6513182  65.0010514  38.4168453
  91.4588066  66.0357064  37.6623051  98.8559695  75.8359373  40.6677062
  99.5863084  75.5744661  41.2284765  98.2466641  75.0988095  40.7079130
  96.9374992  73.9767236  41.2651513  96.2108156  73.8423201  40.6568005
  96.5222279  74.2844064  42.0708231  84.7605169  77.6957166  49.0298886
  85.6808178  77.8735765  49.2238933  84.7254752  76.7513211  48.8778585
  83.0609393  71.5689396  27.5053114  82.1540849  71.2722508  27.5815828
  83.3385374  71.2719214  26.6387401  73.9787334  72.8895759  37.9552161
  73.6590118  72.0361067  37.6626535  73.4320762  73.1044337  38.7110128
  77.7567241  75.6058200  41.6721667  77.9753251  76.5375308  41.6909701
  78.1693015  75.2466175  42.4576471  84.6771459  66.1126285  33.6597356
  83.8672188  65.7673370  34.0352602  85.3655876  65.8033829  34.2484967
  86.6062007  65.1904332  35.2821652  87.1593046  65.6099786  35.9411675
  86.8432094  64.2640080  35.3244608  82.6295107  71.1791406  51.0624416
  82.5291834  72.1285763  50.9936507  82.4116649  70.8509645  50.1900486
  81.8308178  68.4276331  27.6465094  82.6927342  68.7531229  27.9060911
  82.0158522  67.6407827  27.1338159  73.8475594  76.5098671  39.9245282
  73.1539065  76.0952623  39.4115237  74.5948585  76.5519207  39.3278701
  89.9840815  67.3004857  34.7900317  89.4039484  67.9589661  34.4078369
  89.7176747  66.4782202  34.3787734  88.4344381  66.7009915  36.9921637
  88.9344159  66.8126450  36.1835956  89.0779989  66.3970968  37.6322445
  82.4926377  74.6088545  49.8789478  82.0093458  75.4088905  50.0853367
  82.5787316  74.6196490  48.9256922  75.7612336  76.4416924  37.8011297
  75.7383024  76.5404612  36.8493180  76.0712973  77.2882075  38.1228463
  78.4199714  78.4993079  41.9157912  79.3742968  78.4677022  41.8487843
  78.2212238  78.0383703  42.7308138  79.0099096  77.0694196  44.4828709
  79.8291985  77.5638274  44.5063547  79.2835904  76.1526164  44.4546277
  88.7665693  69.4604948  33.8456665  87.8791548  69.7454598  33.6276860
  89.1819682  69.2998711  32.9983942  92.1180229  69.4851469  37.5611004
  92.8940619  69.9747921  37.8335621  91.3928363  69.9109523  38.0182874
  94.5552787  70.1979088  38.6184945  95.1497278  69.9574824  37.9078253
  94.6279371  69.4786219  39.2458481  76.7749943  84.0412699  38.9328109
  76.6404411  83.2813100  38.3666108  76.3582005  84.7653599  38.4656898
  87.9108906  79.2249623  27.9404685  88.6144756  79.4299625  28.5562340
  87.1871555  79.7926384  28.2053768  88.7406716  74.9759484  34.0606955
  88.6841918  75.4328035  33.2214587  89.2935059  74.2150168  33.8829798
  92.5511522  70.7649216  34.8857074  92.2948456  70.3645851  35.7165282
  91.9264390  71.4793010  34.7607214  96.8623860  73.5045289  37.3928366
  96.3023418  73.5738478  38.1659928  96.2567363  73.3286274  36.6727862
  79.9319069  84.9382016  39.1446552  79.8151453  85.8827448  39.0425242
  79.1111515  84.6355578  39.5332351  89.8195603  79.6632152  29.9903145
  90.6541207  79.2313350  29.8080620  89.6579946  79.4914165  30.9180039
  89.4741496  76.1664265  31.3559484  89.4190299  76.0008536  30.4147928
  88.8487551  76.8740298  31.5121674  74.2634011  71.4032329  45.1820906
  74.9092874  70.8931283  45.6708131  74.0551162  72.1401011  45.7564332
  86.7887403  78.4713177  50.6813047  87.6578562  78.6453829  50.3199682
  86.3094154  79.2907594  50.5588776  82.7837621  65.6672374  30.9344803
  82.7716291  66.6114214  31.0913073  83.6761043  65.4842519  30.6404264
  80.9573583  85.5910278  42.3602481  81.8600830  85.6233888  42.6768975
  80.7310953  84.6610729  42.3748816  82.7127185  84.3441264  39.0212559
  81.7622816  84.3443126  38.9076931  83.0159671  83.5973999  38.5048594
  86.5989741  62.2615151  35.1890739  85.8322136  61.7073637  35.3347422
  87.0100446  62.3337019  36.0504891  78.6031502  68.5499946  49.2795921
  79.4662963  68.1936751  49.4899245  78.0296912  68.2113841  49.9671325
  98.4479879  90.1801803  40.0858322  99.0858288  90.0608550  39.3821662
  98.3300721  91.1282647  40.1446274  95.2569585  90.1329231  40.0219846
  94.9188096  90.0170296  39.1340381  96.1259353  89.7320396  40.0020852
  91.1156401  91.9864707  36.0116737  90.5521266  91.8954644  35.2433025
  91.0008796  91.1664612  36.4919230  95.7389368  91.2864083  45.9806052
  95.7278009  90.8916881  45.1086555  95.9010007  90.5530155  46.5739823
  88.6620832  93.4815899  38.8500958  89.4542124  93.1406724  38.4347257
  88.9017483  93.5910874  39.7703111  90.6211586  92.7424812  31.7218336
  91.3942462  92.1953799  31.5831212  90.9736985  93.6069062  31.9332798
  92.4596629  94.0701194  44.9285236  92.1686495  94.9746825  44.8131902
  93.0953613  94.1117722  45.6429305  93.3852836  91.4478043  41.5186595
  93.9816408  91.2234065  40.8043558  93.4427807  90.7062788  42.1212043
  92.9577864  88.9017478  29.3536786  93.2103385  88.3799000  28.5920249
  92.0202423  88.7383624  29.4563470  98.0021147  87.9053257  37.1611530
  98.7884236  87.4872680  36.8101947  98.2659851  88.8099349  37.3293178
  92.6774153  90.8045584  31.5561161  92.5610411  90.1290488  32.2242246
  92.7876413  90.3177958  30.7393314  95.0205694  90.2655731  35.2607851
  94.6563901  89.7386352  35.9720772  95.8772810  89.8754200  35.0874336
 100.9254995  81.5550064  42.5239117 100.5938319  82.4245475  42.3000332
 100.3300608  81.2386348  43.2033147  94.6611181  85.2945631  30.2569199
  94.8285583  86.1625867  30.6239670  94.4708350  85.4572913  29.3330488
  90.8698996  90.2076407  37.9571734  89.9449492  90.0752621  38.1649426
  91.1183409  90.9870626  38.4541676 100.8183658  86.2745150  39.6032467
  99.9100535  86.2060559  39.3091228 100.7671254  86.7517095  40.4314292
  94.6400402  87.7503289  31.2415866  94.5200027  88.1960339  32.0801346
  93.9452990  88.0988606  30.6829404  88.2307807  89.8509680  38.7915523
  88.3600188  90.1044159  39.7054935  87.5505258  90.4437388  38.4720178
  94.8924524  87.6934796  47.5467364  94.1157858  88.2528716  47.5370229
  95.5315087  88.1791579  48.0682234 102.6845304  84.4761589  41.3810341
 102.0419684  84.7694122  40.7350135 102.1800233  84.3614509  42.1863537
 100.3385468  88.2224762  32.0696200 101.2503324  88.4552148  31.8943897
  99.8295115  88.8061806  31.5071279  93.1470896  90.5020249  47.1085331
  93.8885580  91.0405293  46.8320155  92.4407881  91.1286538  47.2656883
  94.9757306  87.5821996  43.0791049  95.8218501  88.0061410  43.2225698
  94.9155943  86.9255621  43.7729613  98.1256751  85.2426365  44.7372223
  97.8817683  85.9968425  44.2006499  98.4016681  85.6211712  45.5719470
  97.6821443  84.3982798  40.3186061  96.8205922  84.6964051  40.6102798
  97.7083877  84.6153197  39.3867093  94.4983012  92.9424988  36.7259867
  94.9621358  93.2212691  35.9364489  94.2339810  92.0408433  36.5432957
  91.3907093  92.4896470  39.6639630  91.9608450  92.9183738  39.0257114
  91.9815205  92.2079055  40.3623815  93.4351898  89.0648141  33.5349432
  94.1375941  89.5169184  34.0023358  93.1032527  88.4231960  34.1629325
  91.8832260  87.6559897  47.9100641  91.2530920  88.3376178  48.1436038
  91.7768348  87.5442979  46.9653779  87.1777232  87.3231693  38.8366565
  86.3876286  87.5789222  38.3606676  87.6688479  88.1380031  38.9418606
  89.1291977  87.6876273  35.7950042  88.3323141  87.7994967  36.3133538
  88.9017570  88.0262925  34.9290932  85.4614935  87.5762184  41.2681556
  85.7122973  88.4609194  41.5339132  85.9974483  87.3966785  40.4956648
  91.1613002  81.9580663  50.2725892  90.7679948  81.4046862  50.9473536
  91.9779143  82.2691242  50.6632410  88.1275060  93.3964521  34.1839462
  88.6399581  94.1907772  34.3345027  88.7797773  92.6990812  34.1173063
  89.9369945  96.5130278  36.2662215  90.1136573  97.4348242  36.0783199
  90.7326778  96.1988697  36.6956595  94.0780963  83.3738542  47.8646149
  94.8190677  83.9745695  47.7850611  94.3098886  82.6316180  47.3064191
  89.2222301  88.5594909  46.1424378  89.1075817  87.6580167  46.4431477
  88.3666819  88.8058606  45.7909195  94.8568431  94.2959579  46.6116789
  95.3896768  93.5347867  46.3816097  94.3282512  94.0033231  47.3540943
  98.0238126  79.4019645  42.1410430  97.6802396  80.2921287  42.0649541
  98.3917089  79.2121303  41.2780015  86.0923977  91.7253176  34.9599032
  86.9299199  92.1350184  34.7432740  86.2702245  90.7852618  34.9299226
  97.9888409  89.3928256  30.6482865  97.4735032  90.1632861  30.8871253
  97.7165717  88.7193392  31.2715927  95.5735520  84.2377957  35.7068104
  94.7177116  83.8484807  35.5273743  95.9862472  84.3169918  34.8467889
  97.1034667  81.7724300  40.1059664  96.5999462  81.7354435  39.2927469
  97.3965274  82.6817043  40.1656320  93.3477553  81.8563030  39.1125845
  94.2130549  81.6605839  38.7531735  93.4155062  81.6273382  40.0395202
  97.7774712  87.2655348  32.4742647  97.4724848  87.5801498  33.3252790
  98.7305154  87.3436768  32.5169980  90.9539872  84.0865238  36.4842212
  91.5283624  83.8640419  35.7515405  91.5410854  84.1553932  37.2370813
 100.0119449  89.9738965  37.2906589 100.5251331  90.6068957  37.7928298
 100.6620673  89.3740160  36.9249949  91.2809459  86.1169699  30.5038097
  90.4446771  86.4544386  30.8247372  91.1414228  85.9818679  29.5665234
  93.2562539  80.9606487  35.2117282  92.6026952  80.6455504  34.5873896
  93.2143014  80.3382227  35.9377104  96.4900280  87.4488420  39.5364929
  95.5722841  87.6703367  39.3786617  96.9060423  87.5234731  38.6776637
  97.2735328  88.8479836  34.6667609  98.0207146  89.3601233  34.3574731
  97.5426917  88.5263889  35.5272003  95.5461978  91.3438377  31.6494564
  94.6373197  91.0597410  31.7467033  95.5757061  91.7637455  30.7897871
  99.7214165  85.8836952  36.6486399  98.9836921  85.3714339  36.9796641
  99.9740938  85.4437334  35.8369676  99.8225792  78.6613204  37.2428168
 100.1284669  77.8010568  36.9554083 100.5478397  79.2530825  37.0427162
  86.1150148  89.0643891  35.6309766  85.9174548  88.4713252  34.9060832
  85.5596812  88.7596101  36.3485705  94.0946872  88.9566997  37.7504359
  94.1495482  88.0040834  37.6746836  93.2838074  89.1126436  38.2345657
  92.0339232  87.5744057  35.5094738  91.2207097  87.8738228  35.9159930
  92.5298226  87.1799746  36.2269220  97.6313443  88.0385882  44.3409632
  97.9862831  88.2657355  45.2004098  98.2785575  88.3704258  43.7186887
  91.5253306  85.1462413  41.1255973  92.1652686  85.0051172  40.4278936
  90.6930837  84.8596926  40.7494575  92.3013610  94.4464843  37.2390965
  93.0954209  93.9515163  37.0373540  91.5905303  93.9182706  36.8758671
  88.6096374  88.5907925  33.3150718  87.6793962  88.5292380  33.5320680
  88.7053846  88.0683878  32.5187359  88.5281923  85.1162738  35.9028960
  88.7888740  86.0308071  35.7938120  89.3499095  84.6487180  36.0525573
  90.0006848  86.5300495  43.0727784  90.6729902  86.3217857  42.4240433
  89.1736635  86.3322581  42.6333017  95.9032420  83.1562436  45.0893445
  95.2560335  83.8552385  44.9957922  96.6733436  83.5898580  45.4569693
  96.0796555  90.9943201  43.1490265  97.0088615  91.1454360  42.9759232
  95.6587585  91.0827221  42.2938911  90.4034345  89.8043098  43.8330221
  90.2654143  89.0723337  44.4341760  91.3139269  89.7151998  43.5514409
  93.0316646  89.5163057  43.3213901  93.7416265  88.8756249  43.2800519
  92.9885954  89.7675952  44.2440082  91.7445580  86.5028275  45.1409541
  91.2082937  86.0519013  45.7931137  91.1562289  86.6374184  44.3980005
  91.1547839  85.9616926  27.7036004  90.2777305  85.8405727  27.3398251
  91.6305592  85.1703005  27.4514893  82.6749979  90.7494086  37.7977511
  83.3621019  90.4355816  37.2098527  82.5198108  91.6535451  37.5244763
  87.4784701  85.6384283  42.2262535  87.3942890  85.0309952  41.4912945
  86.6567408  86.1293301  42.2272031  97.6508415  84.1237846  37.5932730
  98.1477115  83.3707809  37.2733800  96.8795397  84.1602163  37.0275939
  94.2343384  86.2655229  37.3204415  93.8641171  85.7126270  38.0085320
  94.7302476  85.6613363  36.7679415 100.0927410  81.0907440  39.7412089
  99.1790490  81.3211667  39.9094296 100.5220511  81.1745884  40.5926121
  99.8633868  89.2797332  42.2411983  99.2105319  89.5273239  41.5864436
 100.2414248  88.4661470  41.9074460  95.9121441  90.0217143  48.7278020
  95.2362078  89.9211272  49.3980395  96.7349075  89.8656356  49.1914017
  87.6600301  96.2589079  41.3490535  88.2453737  95.5132767  41.4818439
  87.4625139  96.5693036  42.2327199  82.2517955  88.8294680  40.0694978
  82.2902055  88.2958270  40.8632097  81.7458248  88.3029885  39.4505956
  89.6308718  83.6759220  43.5657521  89.6950044  84.5374051  43.1534918
  89.5675838  83.0633222  42.8329879  89.1060990  85.7482353  47.2130555
  89.7333029  85.3659430  47.8268079  88.2488909  85.5296554  47.5786247
  85.8826533  87.5558782  33.1448910  86.1779974  86.6469460  33.0915964
  84.9814569  87.5346521  32.8229912  89.4120780  85.6314778  39.1276458
  88.6907366  86.2450746  38.9883932  90.2014036  86.1672543  39.0493104
  92.2147093  82.9669205  45.4017110  92.7381495  83.2131501  46.1643419
  91.9959427  83.7989240  44.9820248  87.6114374  85.2372879  33.2688235
  87.2827081  84.3570258  33.0863341  87.9653745  85.1820548  34.1564624
  90.7256198  85.5245849  33.6363713  91.0652270  86.0531770  32.9142321
  91.1728318  85.8626255  34.4122279  93.4199638  83.9082900  43.0866781
  93.0796459  83.1090713  43.4887461  92.7138645  84.2084611  42.5143614
  94.0716110  80.9932212  41.5394104  94.8942180  80.5192690  41.4172994
  94.3154174  81.7722696  42.0392790  92.7124345  84.0220471  31.8357005
  93.4332707  84.4001723  31.3320722  92.0889649  84.7409348  31.9391983
  96.8555468  84.7265620  32.7715338  97.0719082  85.6090258  32.4704166
  96.3749535  84.3351833  32.0420980  91.5954689  87.6851333  39.3486082
  91.4499270  87.9991636  40.2410364  91.1179893  88.3036233  38.7956981
  93.4551072  84.6753881  39.3966972  93.4412641  83.7794974  39.0599270
  94.1723500  84.6824545  40.0305258  95.3077203  85.1091221  41.4420099
  95.0494980  86.0308292  41.4404430  94.7762243  84.7121656  42.1320563
  86.0700351  90.2256677  42.2873744  85.5253819  91.0016485  42.4194018
  86.9479701  90.5727482  42.1292865  92.8587968  83.5568261  34.6654542
  92.9803879  82.6284907  34.8645430  92.5690010  83.5706947  33.7532857
  95.7279158  81.2423172  37.8021262  95.7500855  81.3062505  36.8473241
  96.1447217  80.4027680  37.9961768  86.8566373  89.3526574  45.1803900
  86.1148109  89.5009209  45.7668531  86.5359117  89.6134839  44.3170650
  87.3022987  97.2392002  37.2114295  88.1281007  96.9395774  36.8312939
  86.9517039  96.4699625  37.6604084  85.5031592  95.1578329  38.1703229
  84.6663500  94.7300503  37.9887230  85.4755237  95.3510772  39.1074020
  92.3429047  85.0700259  48.8744475  92.3917203  85.9462381  48.4922244
  92.8851562  84.5277652  48.3016118  91.8318027  95.1422394  32.7570429
  91.9806147  95.8257858  32.1037102  92.6384470  95.1227484  33.2719885
 100.2385530  88.4464776  46.7837647 101.1395393  88.3071241  46.4921645
 100.3133505  88.6119231  47.7235824  94.5728336  85.8231631  45.6290833
  93.7031645  86.1165197  45.3573422  94.8087816  86.4072076  46.3498097
  89.5870660  91.1687571  33.7631498  89.3416702  90.2649901  33.9611708
  89.7566574  91.1704722  32.8210976  97.2767370  82.0411248  43.1456254
  97.7949314  82.7772275  42.8202742  96.9222502  82.3475241  43.9803013
  88.8566307  86.9015929  31.2617660  88.1635552  86.9760284  30.6057696
  88.6118059  86.1376273  31.7839176  97.5279964  78.4611530  38.6657150
  97.8081718  77.7934719  39.2917577  98.3130571  78.6540626  38.1531814
 101.3988822  86.8829164  42.4128725 102.3506245  86.9827262  42.4340949
 101.2292273  86.0907433  42.9226810  99.4203202  83.9684748  42.5988126
  98.8253134  84.2489760  41.9034615  99.1352898  84.4578649  43.3704867
 101.6882115  80.6387343  37.5325121 101.4906936  80.3302431  38.4168453
 102.2981821  81.3648982  37.6623051  95.5998923  93.0249083  49.0298886
  96.5201933  93.2027682  49.2238933  95.5648506  92.0805129  48.8778585
  93.9003148  86.8981313  27.5053114  92.9934603  86.6014426  27.5815828
  94.1779129  86.6011132  26.6387401  84.8181088  88.2187677  37.9552161
  84.4983873  87.3652985  37.6626535  84.2714517  88.4336255  38.7110128
  88.5960996  90.9350118  41.6721667  88.8147006  91.8667226  41.6909701
  89.0086770  90.5758092  42.4576471  95.5165214  81.4418203  33.6597356
  94.7065942  81.0965288  34.0352602  96.2049631  81.1325747  34.2484967
  97.4455762  80.5196250  35.2821652  97.9986801  80.9391703  35.9411675
  97.6825848  79.5931998  35.3244608  93.4688861  86.5083324  51.0624416
  93.3685588  87.4577681  50.9936507  93.2510403  86.1801563  50.1900486
  92.6701933  83.7568249  27.6465094  93.5321097  84.0823147  27.9060911
  92.8552277  82.9699745  27.1338159  84.6869348  91.8390588  39.9245282
  83.9932820  91.4244541  39.4115237  85.4342339  91.8811125  39.3278701
 100.8234569  82.6296775  34.7900317 100.2433238  83.2881579  34.4078369
 100.5570502  81.8074120  34.3787734  99.2738135  82.0301833  36.9921637
  99.7737914  82.1418367  36.1835956  99.9173743  81.7262886  37.6322445
  93.3320131  89.9380462  49.8789478  92.8487213  90.7380823  50.0853367
  93.4181070  89.9488407  48.9256922  86.6006091  91.7708842  37.8011297
  86.5776779  91.8696529  36.8493180  86.9106727  92.6173993  38.1228463
  89.2593469  93.8284997  41.9157912  90.2136722  93.7968939  41.8487843
  89.0605992  93.3675621  42.7308138  89.8492851  92.3986113  44.4828709
  90.6685740  92.8930192  44.5063547  90.1229659  91.4818081  44.4546277
  99.6059447  84.7896866  33.8456665  98.7185302  85.0746516  33.6276860
 100.0213436  84.6290629  32.9983942 102.9573983  84.8143386  37.5611004
 103.7334373  85.3039839  37.8335621 102.2322117  85.2401441  38.0182874
  87.6143698  99.3704617  38.9328109  87.4798165  98.6105018  38.3666108
  87.1975760 100.0945517  38.4656898  99.5800471  90.3051401  34.0606955
  99.5235672  90.7619953  33.2214587 100.1328813  89.5442086  33.8829798
 103.3905277  86.0941133  34.8857074 103.1342211  85.6937769  35.7165282
 102.7658145  86.8084927  34.7607214  85.1027765  86.7324247  45.1820906
  85.7486629  86.2223201  45.6708131  84.8944916  87.4692929  45.7564332
  93.6231376  80.9964292  30.9344803  93.6110045  81.9406132  31.0913073
  94.5154797  80.8134437  30.6404264  97.4383495  77.5907068  35.1890739
  96.6715891  77.0365555  35.3347422  97.8494200  77.6628937  36.0504891
  89.4425256  83.8791864  49.2795921  90.3056718  83.5228669  49.4899245
  88.8690667  83.5405759  49.9671325  38.2627858  -5.5696271  31.6530542
  37.9717724  -4.6650640  31.5377209  38.8984842  -5.5279744  32.3674612
  40.7628874  -5.4276490  30.4677863  40.8273306  -4.9656083  31.3036035
  40.0539798  -6.0579125  30.5960173  42.1045368  -3.1384816  34.4657186
  41.6609222  -3.9248437  34.1478090  42.7662582  -2.9505666  33.8001076
  36.8632489  -1.6089014  28.9917864  37.4139914  -1.7371951  28.2194858
  36.0243965  -1.3094125  28.6412757  44.2026606  -2.8582016  32.4938587
  44.1845081  -2.0373135  32.0018856  45.1246526  -2.9827941  32.7188728
  40.6599660  -5.3437887  33.3362095  41.1927997  -6.1049598  33.1061403
  40.1313741  -5.6364235  34.0786250  42.9239684  -2.8114527  28.3148640
  42.9776706  -2.2423591  29.0826356  42.0554465  -2.6412642  27.9502677
  40.6816115  -4.6203601  27.6434109  40.5427201  -4.9884816  28.5160047
  39.8930711  -4.1055961  27.4718067  46.8234654  -3.1867055  32.9665787
  46.7647200  -3.8707835  32.2996370  47.2254172  -2.4448065  32.5146413
  35.8425352   3.6294859  25.7599506  36.0821951   4.2613383  26.4378524
  34.9994549   3.2782899  26.0464865  40.3553214  -0.5626019  28.1641010
  40.2823386   0.2428952  28.6760314  39.9130607  -0.3634053  27.3389031
  42.8151898  -0.6639185  30.3199168  43.5279870  -0.0291720  30.2475070
  42.3241926  -0.5675319  29.5039170  37.8663811  -2.9144742  31.1404739
  38.5673271  -2.2808259  31.2934133  37.3958926  -2.5730010  30.3800379
  42.6272271  -0.3240441  23.0685460  42.8094666  -1.1418785  23.5313212
  43.4505257  -0.1072749  22.6310350  40.4575453   1.6886604  29.6880943
  41.0093761   1.8518226  30.4530028  40.7981647   2.2791042  29.0160968
  45.3086327  -3.4852138  35.5429597  45.8526231  -2.8722180  35.0484552
  44.7273172  -2.9272560  36.0596610  43.5943840  -0.3631420  26.6744625
  43.4694980  -1.1641680  26.1655570  44.2522932   0.1314773  26.1858595
  45.6578749  -2.5622400  28.3024175  44.7109084  -2.6817049  28.2302502
  46.0061522  -3.4499902  28.3850436  46.2659304  -1.9441125  25.5893400
  47.1905851  -2.1498264  25.4517851  46.0974607  -2.1924724  26.4982741
  40.6041264  -0.7454914  31.7029597  40.9128391  -0.9905767  32.5752297
  41.4016747  -0.5408276  31.2148467  40.6261877   1.4082996  23.9334974
  40.1866867   0.9159374  24.6267830  41.3769993   0.8655963  23.6927049
  35.6524080  -7.2411353  31.2074016  36.4716969  -6.7467274  31.2308853
  35.9260887  -8.1579384  31.1791583  36.5744052   0.6276468  25.8691859
  36.4576436   1.5721900  25.7670549  35.7536498   0.3250029  26.2577658
  37.5998566   1.2804730  29.0847787  38.5025813   1.3128340  29.4014282
  37.3735936   0.3505181  29.0994123  39.3552168   0.0335716  25.7457866
  38.4047799   0.0337578  25.6322238  39.6584655  -0.7131549  25.2293900
  55.0904862   5.8696255  26.8103628  55.7283272   5.7503002  26.1066968
  54.9725705   6.8177099  26.8691580  51.8994568   5.8223683  26.7465153
  51.5613080   5.7064748  25.8585688  52.7684336   5.4214848  26.7266159
  47.7581384   7.6759159  22.7362044  47.1946249   7.5849096  21.9678332
  47.6433779   6.8559064  23.2164536  52.3814351   6.9758535  32.7051358
  52.3702992   6.5811333  31.8331862  52.5434991   6.2424607  33.2985130
  45.3045816   9.1710351  25.5746264  46.0967108   8.8301175  25.1592564
  45.5442466   9.2805326  26.4948418  53.3380943  11.3430127  18.0476509
  52.6868922  11.9284207  17.6610523  54.1325305  11.8736322  18.1071546
  47.2636570   8.4319264  18.4463643  48.0367446   7.8848251  18.3076519
  47.6161969   9.2963513  18.6578104  49.1021612   9.7595646  31.6530542
  48.8111478  10.6641277  31.5377209  49.7378597   9.8012174  32.3674612
  50.0277819   7.1372495  28.2431902  50.6241391   6.9128517  27.5288865
  50.0852791   6.3957240  28.8457350  54.6446130   3.5947709  23.8856836
  55.4309220   3.1767132  23.5347253  54.9084835   4.4993801  24.0538485
  54.8156208   9.0320559  18.5845493  54.1802041   9.1055185  19.2966398
  54.4853614   9.6214158  17.9064572  60.0454557   3.5322942  24.7889815
  60.7779729   2.9622159  25.0227644  59.2893913   3.1444542  25.2296320
  49.3199136   6.4940036  18.2806468  49.2035394   5.8184940  18.9487552
  49.4301396   6.0072410  17.4638621  51.6630677   5.9550183  21.9853157
  51.2988884   5.4280804  22.6966079  52.5197793   5.5648652  21.8119643
  54.0611497   9.4457062  28.6480336  53.7612220  10.3482101  28.5396143
  53.7162557   9.1789245  29.5001489  47.5123979   5.8970859  24.6817040
  46.5874475   5.7647073  24.8894732  47.7608392   6.6765078  25.1786983
  57.4608641   1.9639602  26.3277773  56.5525518   1.8955010  26.0336534
  57.4096237   2.4411547  27.1559599  51.2825385   3.4397740  17.9661173
  51.1625010   3.8854791  18.8046653  50.5877973   3.7883058  17.4074711
  44.8732790   5.5404132  25.5160830  45.0025171   5.7938611  26.4300241
  44.1930241   6.1331840  25.1965485  49.0432277  16.2101382  21.6151304
  48.9656307  17.1609207  21.6939784  48.4393921  15.8647255  22.2726230
  51.5349507   3.3829248  34.2712671  50.7582841   3.9423168  34.2615535
  52.1740070   3.8686031  34.7927541  59.3270288   0.1656040  28.1055647
  58.6844668   0.4588574  27.4595442  58.8225216   0.0508961  28.9108844
  56.9810451   3.9119214  18.7941507  57.8928307   4.1446600  18.6189204
  56.4720098   4.4956258  18.2316585  49.7895879   6.1914701  33.8330638
  50.5310564   6.7299745  33.5565461  49.0832865   6.8180990  33.9902189
  55.2651219   8.3343841  32.4302799  55.6734575   7.8926252  31.6857432
  54.5428480   7.7596469  32.6836992  51.6182289   3.2716448  29.8036356
  52.4643484   3.6955862  29.9471005  51.5580927   2.6150073  30.4974919
  55.5880034   8.8945032  26.1855088  54.9588896   9.0590746  25.4831156
  55.2005696   9.3086642  26.9566052  59.4669265   9.8299470  23.5399452
  58.7820304  10.2098371  22.9896485  59.5513115  10.4394797  24.2731400
  54.7681734   0.9320817  31.4617530  54.5242666   1.6862877  30.9251805
  55.0441665   1.3106164  32.2964777  56.7220197   7.4759429  30.1394795
  56.9337092   8.1191189  29.4629176  56.6749945   6.6421746  29.6716725
  54.3246426   0.0877250  27.0431367  53.4630905   0.3858503  27.3348105
  54.3508861   0.3047648  26.1112400  51.1407995   8.6319440  23.4505173
  51.6046341   8.9107143  22.6609796  50.8764793   7.7302885  23.2678264
  48.0332076   8.1790922  26.3884936  48.6033434   8.6078190  25.7502421
  48.6240188   7.8973506  27.0869122  50.0776881   4.7542593  20.2594738
  50.7800925   5.2063636  20.7268665  49.7457510   4.1126411  20.8874631
  48.5257243   3.3454349  34.6345948  47.8955904   4.0270630  34.8681344
  48.4193331   3.2337431  33.6899086  43.8202215   3.0126145  25.5611872
  43.0301269   3.2683674  25.0851982  44.3113463   3.8274483  25.6663912
  57.8366025  10.3531384  28.3117153  58.6583469   9.9511572  28.0299834
  57.8328428  10.2499619  29.2633268  45.7716961   3.3770724  22.5195349
  44.9748124   3.4889419  23.0378844  45.5442553   3.7157377  21.6536239
  51.6022628   9.9015428  30.4677863  51.6667061  10.3635835  31.3036035
  50.8933552   9.2712793  30.5960173  42.1039918   3.2656636  27.9926863
  42.3547957   4.1503646  28.2584439  42.6399467   3.0861237  27.2201954
  65.9272018   6.6970133  24.6602124  65.1735726   6.1277531  24.5046129
  66.0619559   6.6632797  25.6072759  51.3170646  11.5683535  20.3356843
  51.1816321  12.4135071  20.7641691  51.8580459  11.7702813  19.5722777
  47.8037986  -2.3524885  36.9971199  47.4104931  -2.9058686  37.6718843
  48.6204126  -2.0414307  37.3877716  44.7700043   9.0858973  20.9084769
  45.2824564   9.8802223  21.0590333  45.4222756   8.3885264  20.8418370
  46.5794928  12.2024729  22.9907522  46.7561556  13.1242694  22.8028506
  47.3751762  11.8883149  23.4201902  50.7205947  -0.9367006  34.5891455
  51.4615660  -0.3359853  34.5095918  50.9523870  -1.6789368  34.0309498
  45.8647285   4.2489361  32.8669685  45.7500800   3.3474619  33.1676784
  45.0091802   4.4953058  32.5154501  52.9439122  12.1907102  34.4657186
  52.5002977  11.4043480  34.1478090  53.6056336  12.3786252  33.8001076
  47.7026244  13.7202903  28.9917864  48.2533669  13.5919967  28.2194858
  46.8637720  14.0197792  28.6412757  55.0420361  12.4709902  32.4938587
  55.0238836  13.2918783  32.0018856  55.9640281  12.3463977  32.7188728
  51.4993415   9.9854031  33.3362095  52.0321751   9.2242319  33.1061403
  50.9707496   9.6927683  34.0786250  42.7348960   7.4147627  21.6844339
  43.5724182   7.8244636  21.4678047  42.9127228   6.4747070  21.6544533
  54.6313392   5.0822708  17.3728172  54.1160016   5.8527313  17.6116559
  54.3590701   4.4087844  17.9961234  52.2160503  -0.0727591  22.4313410
  51.3602100  -0.4620741  22.2519049  52.6287455   0.0064370  21.5713196
  49.9902536  -2.4542518  25.8371152  50.8555533  -2.6499709  25.4777041
  50.0580045  -2.6832166  26.7640509  59.6047666   7.8355063  19.3081346
  58.8277109   7.4966222  18.8636508  60.2839147   7.8407686  18.6336311
  54.4199696   2.9549800  19.1987953  54.1149831   3.2695949  20.0498096
  55.3730138   3.0331220  19.2415286  52.8646127   9.1140024  20.8480907
  52.3367489   8.3792783  20.5354145  52.3633630   9.8914700  20.6020876
  57.8438973   7.3089044  25.9647954  57.1862648   7.9988305  26.0528082
  58.6479373   7.6985476  26.3081940  47.5964855  -0.2240310  23.2087519
  48.1708607  -0.4465129  22.4760712  48.1835837  -0.1551616  23.9616120
  56.6544432   5.6633417  24.0151895  57.1676314   6.2963409  24.5173605
  57.3045656   5.0634612  23.6495255  53.9166806  15.6417741  16.7712566
  53.2428505  15.9449438  17.3797524  54.3032628  16.4446821  16.4218023
  53.1325263   3.1382872  26.2610236  52.2147824   3.3597819  26.1031924
  53.5485407   3.2129183  25.4021943  53.9160311   4.5374288  21.3912916
  54.6632130   5.0495685  21.0820038  54.1851900   4.2158341  22.2517310
  52.1886961   7.0332829  18.3739870  51.2798180   6.7491862  18.4712340
  52.2182045   7.4531907  17.5143177  57.4206228  10.6439418  22.1431038
  56.9668556   9.8030328  22.1996228  56.7900195  11.2800817  22.4805818
  56.3639148   1.5731404  23.3731705  55.6261905   1.0608790  23.7041948
  56.6165921   1.1331786  22.5614982  55.8639168  12.4815915  23.0780856
  56.1562142  13.0420972  22.3593222  56.3737788  12.7744476  23.8334015
  42.7575131   4.7538343  22.3555073  42.5599531   4.1607704  21.6306139
  42.2021795   4.4490553  23.0731011  50.7371855   4.6461449  24.4749666
  50.7920465   3.6935286  24.3992142  49.9263057   4.8020888  24.9590964
  51.8863049   8.5741572  15.7127949  51.4482479   7.8577431  15.2533586
  52.6273490   8.8017687  15.1513040  48.6764215   3.2638509  22.2340045
  47.8632080   3.5632680  22.6405237  49.1723209   2.8694198  22.9514527
  50.8272793  13.2596266  24.1674309  50.7848972  13.4857112  23.2382841
  51.7435492  13.0259641  24.3160110  54.2738427   3.7280334  31.0654938
  54.6287814   3.9551807  31.9249404  54.9210558   4.0598710  30.4432194
  60.0036164   6.8498769  21.7704267  59.8654062   7.0400365  20.8425457
  59.6472382   7.6118152  22.2272319  48.1678290   0.8356865  27.8501280
  48.8077669   0.6945624  27.1524243  47.3355820   0.5491378  27.4739882
  60.0305543   8.9175296  26.7815539  60.4642050   8.8250586  27.6298593
  60.7437124   8.8932797  26.1435555  48.9438594  10.1359295  23.9636272
  49.7379192   9.6409615  23.7618847  48.2330286   9.6077158  23.6003978
  53.7633438  12.5177391  28.3148640  53.8170460  13.0868327  29.0826356
  52.8948219  12.6879276  27.9502677  45.1706906   0.8057190  22.6274266
  45.4313723   1.7202523  22.5183427  45.9924078   0.3381632  22.7770879
  46.6431831   2.2194947  29.7973091  47.3154885   2.0112309  29.1485740
  45.8161618   2.0217033  29.3578323  60.8921093   8.9598997  29.3148424
  61.0856983   9.8644808  29.5607699  60.7921711   8.5006416  30.1487009
  52.5457403  -1.1543112  31.8138752  51.8985319  -0.4553163  31.7203228
  53.3158419  -0.7206968  32.1815000  55.9536201   9.1105740  34.8889305
  55.8021708   8.8816292  33.9719389  55.9440881  10.0676341  34.9020650
  52.7221538   6.6837653  29.8735571  53.6513598   6.8348812  29.7004539
  52.3012568   6.7721673  29.0184218  51.5209870  10.7088317  27.6434109
  51.3820955  10.3407101  28.5160047  50.7324466  11.2235956  27.4718067
  52.1158022  15.8097413  18.9859646  52.2909777  15.3385457  19.8005268
  51.4290810  16.4363180  19.2140906  53.0715085  10.0869920  25.0322947
  52.7364917  10.0470690  25.9280597  52.5719030   9.4214636  24.5593357
  47.0459329   5.4937550  30.5575528  46.9079127   4.7617789  31.1587067
  47.9564252   5.4046450  30.2759716  56.0074276   7.4325954  15.3060007
  55.3903447   6.7072782  15.2093059  55.5390765   8.1935314  14.9627081
  49.6741629   5.2057509  30.0459208  50.3841248   4.5650701  30.0045826
  49.6310938   5.4570404  30.9685388  57.6628408  12.1424862  32.9665787
  57.6040954  11.4584082  32.2996370  58.0647926  12.8843852  32.5146413
  48.3870563   2.1922727  31.8654847  47.8507920   1.7413465  32.5176443
  47.7987272   2.3268636  31.1225311  46.6819107  18.9586776  25.7599506
  46.9215705  19.5905300  26.4378524  45.8388303  18.6074816  26.0464865
  57.6645815  10.1064446  31.1979767  56.7772594   9.7690368  31.3206165
  58.2344366   9.3747478  31.4348532  39.3174962   6.4388538  24.5222818
  40.0046002   6.1250268  23.9343833  39.1623091   7.3429903  24.2490069
  44.1209685   1.3278735  28.9507842  44.0367873   0.7204404  28.2158252
  43.2992391   1.8187753  28.9517338  51.1946969  14.7665899  28.1641010
  51.1217140  15.5720870  28.6760314  50.7524362  14.9657864  27.3389031
  50.9836748  14.0037669  21.6743831  50.2004270  14.5459349  21.7682056
  51.6829494  14.5211648  22.0738072  54.2933398  -0.1867702  24.3178037
  54.7902098  -0.9397740  23.9979107  53.5220380  -0.1503385  23.7521246
  62.1463156   5.5172664  25.9596328  62.1353032   6.3997379  25.5890261
  61.2780535   5.1644214  25.7650865  53.6545652  14.6652733  30.3199168
  54.3673624  15.3000197  30.2475070  53.1635681  14.7616599  29.5039170
  55.3763179   8.5703985  21.8916460  54.4419458   8.6905448  21.7221164
  55.5539848   7.6676452  21.6276470  50.8768367   1.9549681  24.0449721
  50.5066155   1.4020722  24.7330627  51.3727460   1.3507815  23.4924721
  58.7635730   4.4121305  22.4266494  59.2296183   5.2449296  22.3526797
  59.2143231   3.9466286  23.1311753  48.7057566  12.4147176  31.1404739
  49.4067025  13.0483659  31.2934133  48.2352681  12.7561908  30.3800379
  56.8311962  10.7565126  19.4252646  57.1071806  10.6421721  20.3346520
  55.9616460  10.3582611  19.3864819  56.5058852   4.9691784  28.9657290
  55.8530302   5.2167691  28.3109742  56.8839232   4.1555922  28.6319767
  53.4666026  15.0051477  23.0685460  53.6488420  14.1873133  23.5313212
  54.2899012  15.2219169  22.6310350  53.8008191  13.9319662  20.3300508
  54.3295958  13.4212116  19.7170670  54.0636411  13.6162192  21.1946041
  52.5546425   5.7111595  35.4523327  51.8787062   5.6105724  36.1225702
  53.3774059   5.5550808  35.9159324  44.3025284  11.9483531  28.0735842
  44.8878721  11.2027219  28.2063746  44.1050122  12.2587488  28.9572506
  47.1563939  14.9834779  23.0898284  46.4874314  15.4680906  22.6062324
  47.0176809  15.2303999  24.0041663  38.8942939   4.5189131  26.7940285
  38.9327038   3.9852722  27.5877403  38.3883231   3.9924337  26.1751262
  51.2969208  17.0178522  29.6880943  51.8487516  17.1810144  30.4530028
  51.6375401  17.6082960  29.0160968  46.2733701  -0.6346328  30.2902827
  46.3375027   0.2268503  29.8780225  46.2100821  -1.2472326  29.5575186
  45.7485973   1.4376804  33.9375862  46.3758012   1.0553882  34.5513386
  44.8913892   1.2191006  34.3031554  56.1480082  11.8439780  35.5429597
  56.6919986  12.4569738  35.0484552  55.5666927  12.4019358  36.0596610
  54.4337595  14.9660498  26.6744625  54.3088734  14.1650237  26.1655570
  55.0916686  15.4606691  26.1858595  46.0545763   1.3209230  25.8521765
  45.3332349   1.9345198  25.7129238  46.8439019   1.8566995  25.7738411
  56.4972503  12.7669518  28.3024175  55.5502839  12.6474869  28.2302502
  56.8455276  11.8792016  28.3850436  48.8572077  -1.3436343  32.1262417
  49.3806478  -1.0974047  32.8888726  48.6384410  -0.5116309  31.7065554
  53.5018937  12.5622234  24.5028527  53.3543899  11.6338941  24.6836097
  54.3272430  12.5842325  24.0185602  47.3681181   1.2140301  20.3609019
  47.7077253   1.7426222  19.6387628  47.8153301   1.5520707  21.1367586
  57.1053058  13.3850793  25.5893400  58.0299606  13.1793654  25.4517851
  56.9368362  13.1367194  26.4982741  50.0624622  -0.4022648  29.8112087
  49.7221442  -1.2014835  30.2132767  49.3563628  -0.1020937  29.2388921
  53.4980451   0.4160072  19.4960644  53.7144065   1.2984709  19.1949473
  53.0174518   0.0246285  18.7666286  48.2379672   3.3745785  26.0731389
  48.0924253   3.6886088  26.9655670  47.7604876   3.9930685  25.5202288
  50.0976055   0.3648333  26.1212279  50.0837624  -0.5310574  25.7844576
  50.8148483   0.3718997  26.7550565  51.9502186   0.7985673  28.1665406
  51.6919964   1.7202744  28.1649736  51.4187226   0.4016108  28.8565870
  56.8948375  13.9036460  20.9455491  57.0685252  13.3382883  20.1929344
  57.3877266  14.7037355  20.7634981  42.7125334   5.9151129  29.0119050
  42.1678803   6.6910937  29.1439324  43.5904684   6.2621934  28.8538172
  49.5012951  -0.7537287  21.3899849  49.6228862  -1.6820641  21.5890736
  49.2114993  -0.7398601  20.4778164  62.7487766   6.6672883  22.5645791
  63.1918912   5.9180208  22.1664914  61.8714276   6.6583019  22.1819523
  57.8823547  13.2203225  18.0452390  58.5774452  13.8409917  18.2639704
  58.2246697  12.3698576  18.3204768  43.4991356   5.0421025  31.9049207
  42.7573092   5.1903661  32.4913837  43.1784101   5.3029291  31.0415956
  59.7814970  10.6702930  19.5739720  60.3066294  11.0090203  18.8489040
  59.6937323   9.7349945  19.3902855  51.4435019  14.5837004  31.7029597
  51.7522145  14.3386150  32.5752297  52.2410501  14.7883642  31.2148467
  51.4655631  16.7374913  23.9334974  51.0260621  16.2451292  24.6267830
  52.2163748  16.1947881  23.6927049  43.9447970  12.9286454  23.9359602
  44.7705990  12.6290226  23.5558245  43.5942022  12.1594077  24.3849390
  48.9129503  12.2812922  26.0057275  48.2909512  11.6183627  25.7059503
  49.5834370  12.3074054  25.3230923  42.1456575  10.8472781  24.8948535
  41.3088483  10.4194955  24.7132537  42.1180220  11.0405224  25.8319326
  48.9854031   0.7594710  35.5989781  49.0342186   1.6356833  35.2167551
  49.5276545   0.2172103  35.0261424  59.4708876  11.3035834  34.8790918
  58.6804420  11.2859973  34.3395418  59.2342231  11.8424127  35.6339955
  59.5906751   8.1528300  32.1923647  59.6404756   7.9878307  33.1339170
  59.4820675   7.2855559  31.8021528  48.4743010  10.8316846  19.4815736
  48.6231130  11.5152310  18.8282409  49.2809454  10.8121936  19.9965192
  56.8810514   4.1359228  33.5082954  57.7820377   3.9965693  33.2166951
  56.9558488   4.3013683  34.4481131  51.2153319   1.5126083  32.3536140
  50.3456629   1.8059649  32.0818728  51.4512799   2.0966528  33.0743404
  61.0924948  10.5725242  32.4365668  60.8009757  10.9355222  33.2729129
  60.4797079   9.8592250  32.2579001  62.2920631   8.1378121  24.9568239
  63.1267522   8.5767925  25.1205799  62.4279759   7.6616775  24.1376484
  59.3412136   5.6957856  30.9045726  59.8166258   5.8885503  30.0964578
  58.4177702   5.7517042  30.6589110  46.2295643   6.8582023  20.4876805
  45.9841685   5.9544353  20.6857015  46.3991558   6.8599174  19.5456283
  51.9738416  13.3264976  16.9527483  51.4012383  13.9455163  16.4997955
  52.5471209  13.8764338  17.4867405  58.0413805   2.5723616  29.1374032
  58.9931228   2.6721714  29.1586256  57.8717256   1.7801885  29.6472116
  56.0628185  -0.3420800  29.3233433  55.4678117  -0.0615788  28.6279922
  55.7777882   0.1473100  30.0950174  55.1935675  13.6102126  18.0836065
  56.1266349  13.5447688  18.2868941  55.1058888  14.4458393  17.6250598
  57.8223692  12.9267997  15.0440013  57.7437324  12.5927860  15.9375771
  58.6433359  13.4189765  15.0431485  60.5201883   5.7929736  28.2516332
  60.4878203   4.8545737  28.4376015  61.1302507   5.8713773  27.5182157
  60.6696372   2.5840779  28.2974615  60.1535420   1.7999236  28.1104544
  61.5536320   2.2559496  28.4621134  66.3378433   6.8545743  27.3922368
  67.0681822   6.5931031  27.9530072  65.7285379   6.1174465  27.4324436
  64.4193730   4.9953605  27.9896820  63.6926894   4.8609570  27.3813311
  64.0041017   5.3030434  28.7953538  52.2423907   8.7143535  35.7544193
  53.1626916   8.8922134  35.9484239  52.2073490   7.7699580  35.6023892
  41.4606072   3.9082129  24.6797467  41.1408856   3.0547437  24.3871841
  40.9139500   4.1230707  25.4355435  45.2385979   6.6244570  28.3966974
  45.4571989   7.5561678  28.4155008  45.6511753   6.2652544  29.1821778
  50.1113844   2.1977775  37.7869723  50.0110571   3.1472132  37.7181814
  49.8935387   1.8696014  36.9145793  41.3294332   7.5285040  26.6490589
  40.6357803   7.1138993  26.1360543  42.0767323   7.5705577  26.0524008
  49.9745115   5.6274914  36.6034784  49.4912196   6.4275274  36.8098673
  50.0606054   5.6382859  35.6502228  43.2431074   7.4603294  24.5256604
  43.2201762   7.5590981  23.5738487  43.5531711   8.3068445  24.8473770
  45.9018452   9.5179449  28.6403218  46.8561706   9.4863391  28.5733150
  45.7030976   9.0570073  29.4553444  46.4917834   8.0880565  31.2074016
  47.3110723   8.5824644  31.2308853  46.7654642   7.1712533  31.1791583
  56.2484430   0.4791317  20.5701971  55.3610285   0.7640968  20.3522166
  56.6638419   0.3185081  19.7229248  59.5998967   0.5037838  24.2856311
  60.3759357   0.9934291  24.5580927  58.8747101   0.9295893  24.7428180
  44.2568681  15.0599069  25.6573416  44.1223149  14.2999469  25.0911414
  43.8400743  15.7839968  25.1902205  55.3927644  10.2435992  14.6649991
  56.0963494  10.4485995  15.2807647  54.6690293  10.8112754  14.9299075
  56.2225454   5.9945853  20.7852262  56.1660656   6.4514405  19.9459894
  56.7753797   5.2336538  20.6075104  60.0330260   1.7835585  21.6102381
  59.7767194   1.3832221  22.4410589  59.4083128   2.4979379  21.4852520
  64.3442598   4.5231658  24.1173672  63.7842156   4.5924848  24.8905235
  63.7386101   4.3472643  23.3973169  47.4137807  15.9568386  25.8691859
  47.2970191  16.9013818  25.7670549  46.5930253  15.6541947  26.2577658
  57.3014341  10.6818521  16.7148451  58.1359945  10.2499720  16.5325926
  57.1398684  10.5100535  17.6425346  56.9560233   7.1850635  18.0804791
  56.9009037   7.0194906  17.1393235  56.3306289   7.8926667  18.2366980
  41.7452748   2.4218699  31.9066213  42.3911612   1.9117653  32.3953438
  41.5369900   3.1587381  32.4809638  54.2706141   9.4899546  37.4058354
  55.1397300   9.6640199  37.0444988  53.7912892  10.3093963  37.2834083
  48.4392321  16.6096647  29.0847787  49.3419568  16.6420258  29.4014282
  48.2129691  15.6797098  29.0994123  50.1945923  15.3627634  25.7457866
  49.2441554  15.3629496  25.6322238  50.4978409  14.6160369  25.2293900
  46.0850239  -0.4313684  36.0041227  46.9481701  -0.7876879  36.2144552
  45.5115650  -0.7699789  36.6916631  65.9298616  21.1988172  26.8103628
  66.5677026  21.0794920  26.1066968  65.8119459  22.1469016  26.8691580
  62.7388323  21.1515600  26.7465153  62.4006834  21.0356665  25.8585688
  63.6078091  20.7506766  26.7266159  58.5975138  23.0051077  22.7362044
  58.0340003  22.9141014  21.9678332  58.4827533  22.1850981  23.2164536
  63.2208106  22.3050452  32.7051358  63.2096746  21.9103250  31.8331862
  63.3828745  21.5716525  33.2985130  56.1439570  24.5002269  25.5746264
  56.9360862  24.1593093  25.1592564  56.3836220  24.6097244  26.4948418
  64.1774697  26.6722045  18.0476509  63.5262677  27.2576125  17.6610523
  64.9719060  27.2028240  18.1071546  58.1030324  23.7611182  18.4463643
  58.8761200  23.2140169  18.3076519  58.4555723  24.6255431  18.6578104
  59.9415367  25.0887564  31.6530542  59.6505233  25.9933195  31.5377209
  60.5772351  25.1304092  32.3674612  60.8671574  22.4664413  28.2431902
  61.4635146  22.2420435  27.5288865  60.9246545  21.7249158  28.8457350
  60.4396602  19.9203848  16.0782093  60.6922123  19.3985369  15.3165556
  59.5021161  19.7569993  16.1808777  65.4839885  18.9239626  23.8856836
  66.2702974  18.5059049  23.5347253  65.7478589  19.8285718  24.0538485
  65.6549962  24.3612477  18.5845493  65.0195795  24.4347103  19.2966398
  65.3247369  24.9506075  17.9064572  70.8848312  18.8614859  24.7889815
  71.6173484  18.2914076  25.0227644  70.1287668  18.4736460  25.2296320
  60.1592891  21.8231954  18.2806468  60.0429149  21.1476857  18.9487552
  60.2695151  21.3364328  17.4638621  62.5024432  21.2842101  21.9853157
  62.1382639  20.7572722  22.6966079  63.3591548  20.8940570  21.8119643
  68.4073732  12.5736434  29.2484423  68.0757057  13.4431845  29.0245638
  67.8119346  12.2572718  29.9278454  62.1429919  16.3132001  16.9814506
  62.3104321  17.1812237  17.3484977  61.9527088  16.4759282  16.0575795
  64.9005252  24.7748980  28.6480336  64.6005975  25.6774018  28.5396143
  64.5556311  24.5081163  29.5001489  58.3517733  21.2262776  24.6817040
  57.4268230  21.0938990  24.8894732  58.6002147  22.0056996  25.1786983
  68.3002396  17.2931520  26.3277773  67.3919273  17.2246928  26.0336534
  68.2489991  17.7703465  27.1559599  62.1219140  18.7689658  17.9661173
  62.0018765  19.2146709  18.8046653  61.4271728  19.1174976  17.4074711
  55.7126544  20.8696050  25.5160830  55.8418926  21.1230529  26.4300241
  55.0323996  21.4623758  25.1965485  59.8826032  31.5393300  21.6151304
  59.8050061  32.4901125  21.6939784  59.2787675  31.1939172  22.2726230
  62.3743261  18.7121165  34.2712671  61.5976595  19.2715085  34.2615535
  63.0133824  19.1977948  34.7927541  70.1664042  15.4947958  28.1055647
  69.5238422  15.7880491  27.4595442  69.6618971  15.3800878  28.9108844
  67.8204206  19.2411131  18.7941507  68.7322062  19.4738518  18.6189204
  67.3113853  19.8248176  18.2316585  60.6289634  21.5206619  33.8330638
  61.3704318  22.0591663  33.5565461  59.9226619  22.1472907  33.9902189
  66.1044973  23.6635759  32.4302799  66.5128329  23.2218170  31.6857432
  65.3822235  23.0888387  32.6836992  62.4576043  18.6008366  29.8036356
  63.3037239  19.0247779  29.9471005  62.3974681  17.9441990  30.4974919
  70.3063020  25.1591388  23.5399452  69.6214058  25.5390289  22.9896485
  70.3906869  25.7686714  24.2731400  65.6075489  16.2612734  31.4617530
  65.3636421  17.0154795  30.9251805  65.8835419  16.6398082  32.2964777
  67.5613951  22.8051347  30.1394795  67.7730847  23.4483107  29.4629176
  67.5143700  21.9713663  29.6716725  65.1640180  15.4169167  27.0431367
  64.3024659  15.7150421  27.3348105  65.1902615  15.6339566  26.1112400
  61.9801750  23.9611358  23.4505173  62.4440095  24.2399061  22.6609796
  61.7158548  23.0594802  23.2678264  58.8725831  23.5082839  26.3884936
  59.4427188  23.9370108  25.7502421  59.4633943  23.2265424  27.0869122
  60.9170636  20.0834510  20.2594738  61.6194679  20.5355554  20.7268665
  60.5851264  19.4418329  20.8874631  59.3650997  18.6746267  34.6345948
  58.7349658  19.3562548  34.8681344  59.2587085  18.5629348  33.6899086
  54.6595970  18.3418063  25.5611872  53.8695024  18.5975591  25.0851982
  55.1507217  19.1566401  25.6663912  56.6110715  18.7062642  22.5195349
  55.8141879  18.8181336  23.0378844  56.3836307  19.0449294  21.6536239
  62.4416383  25.2307345  30.4677863  62.5060815  25.6927753  31.3036035
  61.7327307  24.6004710  30.5960173  52.9433673  18.5948553  27.9926863
  53.1941711  19.4795563  28.2584439  53.4793221  18.4153155  27.2201954
  76.7665772  22.0262051  24.6602124  76.0129481  21.4569449  24.5046129
  76.9013314  21.9924715  25.6072759  62.1564401  26.8975453  20.3356843
  62.0210075  27.7426989  20.7641691  62.6974213  27.0994730  19.5722777
  58.6431740  12.9767033  36.9971199  58.2498686  12.4233231  37.6718843
  59.4597881  13.2877611  37.3877716  55.6093798  24.4150891  20.9084769
  56.1218319  25.2094141  21.0590333  56.2616511  23.7177181  20.8418370
  57.4188683  27.5316647  22.9907522  57.5955311  28.4534612  22.8028506
  58.2145516  27.2175066  23.4201902  61.5599701  14.3924912  34.5891455
  62.3009415  14.9932065  34.5095918  61.7917624  13.6502550  34.0309498
  56.7041039  19.5781279  32.8669685  56.5894554  18.6766536  33.1676784
  55.8485557  19.8244976  32.5154501  63.7832877  27.5199019  34.4657186
  63.3396731  26.7335398  34.1478090  64.4450091  27.7078170  33.8001076
  58.5419998  29.0494821  28.9917864  59.0927423  28.9211884  28.2194858
  57.7031474  29.3489710  28.6412757  62.3387169  25.3145949  33.3362095
  62.8715506  24.5534237  33.1061403  61.8101250  25.0219601  34.0786250
  65.5056864  10.4206015  28.8655737  65.1621134  11.3107656  28.7894848
  65.8735827  10.2307672  28.0025322  53.5742715  22.7439545  21.6844339
  54.4117937  23.1536554  21.4678047  53.7520982  21.8038987  21.6544533
  65.4707147  20.4114626  17.3728172  64.9553770  21.1819230  17.6116559
  65.1984455  19.7379762  17.9961234  63.0554258  15.2564327  22.4313410
  62.1995854  14.8671177  22.2519049  63.4681210  15.3356287  21.5713196
  64.5853405  12.7910670  26.8304970  64.0818200  12.7540805  26.0172775
  64.8784011  13.7003413  26.8901627  60.8296290  12.8749400  25.8371152
  61.6949287  12.6792208  25.4777041  60.8973799  12.6459751  26.7640509
  70.4441421  23.1646980  19.3081346  69.6670864  22.8258140  18.8636508
  71.1232902  23.1699604  18.6336311  65.2593450  18.2841718  19.1987953
  64.9543586  18.5987867  20.0498096  66.2123892  18.3623138  19.2415286
  63.7039882  24.4431941  20.8480907  63.1761243  23.7084701  20.5354145
  63.2027385  25.2206618  20.6020876  68.6832728  22.6380962  25.9647954
  68.0256402  23.3280223  26.0528082  69.4873127  23.0277394  26.3081940
  58.4358609  15.1051608  23.2087519  59.0102361  14.8826789  22.4760712
  59.0229592  15.1740302  23.9616120  67.4938187  20.9925334  24.0151895
  68.0070068  21.6255326  24.5173605  68.1439411  20.3926530  23.6495255
  58.7628197  17.1356069  17.2283404  57.9265509  17.4730755  17.5492679
  58.6232966  17.0005048  16.2910541  60.7381277  11.9792856  21.9362588
  60.0845690  11.6641874  21.3119203  60.6961751  11.3568597  22.6622411
  61.8492482  22.2612152  13.8515880  60.9419544  22.0301405  14.0507029
  62.3463514  21.4649771  14.0389862  64.7560561  30.9709659  16.7712566
  64.0822260  31.2741355  17.3797524  65.1426383  31.7738739  16.4218023
  63.9719018  18.4674790  26.2610236  63.0541579  18.6889737  26.1031924
  64.3879161  18.5421100  25.4021943  64.7554065  19.8666206  21.3912916
  65.5025884  20.3787603  21.0820038  65.0245655  19.5450258  22.2517310
  63.0280715  22.3624746  18.3739870  62.1191935  22.0783779  18.4712340
  63.0575799  22.7823825  17.5143177  68.2599983  25.9731336  22.1431038
  67.8062310  25.1322246  22.1996228  67.6293950  26.6092734  22.4805818
  67.2032902  16.9023322  23.3731705  66.4655659  16.3900708  23.7041948
  67.4559676  16.4623704  22.5614982  67.3044530   9.6799574  23.9673475
  67.6103407   8.8196937  23.6799390  68.0297135  10.2717194  23.7672469
  53.5968886  20.0830260  22.3555073  53.3993286  19.4899621  21.6306139
  53.0415550  19.7782471  23.0731011  61.5765610  19.9753367  24.4749666
  61.6314219  19.0227203  24.3992142  60.7656812  20.1312806  24.9590964
  62.7256803  23.9033490  15.7127949  62.2876233  23.1869349  15.2533586
  63.4667244  24.1309605  15.1513040  59.5157969  18.5930427  22.2340045
  58.7025835  18.8924597  22.6405237  60.0116964  18.1986115  22.9514527
  61.6666547  28.5888184  24.1674309  61.6242726  28.8149030  23.2382841
  62.5829246  28.3551558  24.3160110  65.1132181  19.0572251  31.0654938
  65.4681569  19.2843724  31.9249404  65.7604312  19.3890628  30.4432194
  59.0072044  16.1648782  27.8501280  59.6471424  16.0237541  27.1524243
  58.1749575  15.8783296  27.4739882  70.8699298  24.2467214  26.7815539
  71.3035804  24.1542503  27.6298593  71.5830878  24.2224715  26.1435555
  59.7832348  25.4651213  23.9636272  60.5772947  24.9701533  23.7618847
  59.0724040  24.9369076  23.6003978  56.0915112  19.6094294  20.0396025
  55.1612700  19.5478750  20.2565987  56.1872584  19.0870247  19.2432666
  56.0100661  16.1349107  22.6274266  56.2707478  17.0494440  22.5183427
  56.8317833  15.6673550  22.7770879  57.4825586  17.5486864  29.7973091
  58.1548639  17.3404227  29.1485740  56.6555372  17.3508950  29.3578323
  71.7314847  24.2890915  29.3148424  71.9250737  25.1936725  29.5607699
  71.6315465  23.8298334  30.1487009  63.3851158  14.1748805  31.8138752
  62.7379073  14.8738755  31.7203228  64.1552173  14.6084949  32.1815000
  66.7929956  24.4397657  34.8889305  66.6415462  24.2108209  33.9719389
  66.7834635  25.3968259  34.9020650  63.5615292  22.0129570  29.8735571
  64.4907352  22.1640730  29.7004539  63.1406322  22.1013591  29.0184218
  62.3603624  26.0380235  27.6434109  62.2214710  25.6699019  28.5160047
  61.5718220  26.5527874  27.4718067  62.9551776  31.1389331  18.9859646
  63.1303532  30.6677374  19.8005268  62.2684564  31.7655097  19.2140906
  57.8853083  20.8229467  30.5575528  57.7472881  20.0909706  31.1587067
  58.7958007  20.7338367  30.2759716  66.8468031  22.7617872  15.3060007
  66.2297202  22.0364700  15.2093059  66.3784519  23.5227232  14.9627081
  60.5135384  20.5349427  30.0459208  61.2235002  19.8942619  30.0045826
  60.4704692  20.7862322  30.9685388  59.2264318  17.5214645  31.8654847
  58.6901675  17.0705383  32.5176443  58.6381026  17.6560553  31.1225311
  57.5212861  34.2878694  25.7599506  57.7609460  34.9197218  26.4378524
  56.6782058  33.9366734  26.0464865  58.6366577  16.9803296  14.4281311
  57.7596043  16.8592097  14.0643557  59.1124330  16.1889374  14.1760199
  50.1568717  21.7680456  24.5222818  50.8439757  21.4542186  23.9343833
  50.0016846  22.6721820  24.2490069  54.9603439  16.6570652  28.9507842
  54.8761628  16.0496322  28.2158252  54.1386145  17.1479671  28.9517338
  61.8230503  29.3329586  21.6743831  61.0398025  29.8751267  21.7682056
  62.5223248  29.8503566  22.0738072  65.1327153  15.1424216  24.3178037
  65.6295852  14.3894178  23.9979107  64.3614134  15.1788532  23.7521246
  72.9856910  20.8464581  25.9596328  72.9746787  21.7289297  25.5890261
  72.1174290  20.4936132  25.7650865  66.2156934  23.8995903  21.8916460
  65.2813212  24.0197365  21.7221164  66.3933602  22.9968370  21.6276470
  61.7162122  17.2841599  24.0449721  61.3459909  16.7312639  24.7330627
  62.2121214  16.6799732  23.4924721  69.6029485  19.7413222  22.4266494
  70.0689937  20.5741214  22.3526797  70.0536985  19.2758204  23.1311753
  59.5451320  27.7439094  31.1404739  60.2460780  28.3775577  31.2934133
  59.0746435  28.0853825  30.3800379  67.6705716  26.0857044  19.4252646
  67.9465560  25.9713638  20.3346520  66.8010215  25.6874528  19.3864819
  67.5746148  12.1093809  26.4657396  66.6609228  12.3398036  26.6339602
  68.0039249  12.1932253  27.3171428  67.3452606  20.2983701  28.9657290
  66.6924056  20.5459609  28.3109742  67.7232986  19.4847839  28.6319767
  63.3940179  21.0403512  35.4523327  62.7180816  20.9397642  36.1225702
  64.2167813  20.8842726  35.9159324  55.1419038  27.2775449  28.0735842
  55.7272475  26.5319137  28.2063746  54.9443877  27.5879406  28.9572506
  57.9957694  30.3126696  23.0898284  57.3268069  30.7972824  22.6062324
  57.8570563  30.5595917  24.0041663  49.7336693  19.8481049  26.7940285
  49.7720793  19.3144640  27.5877403  49.2276986  19.3216255  26.1751262
  57.1127455  14.6945590  30.2902827  57.1768782  15.5560420  29.8780225
  57.0494576  14.0819591  29.5575186  56.5879728  16.7668722  33.9375862
  57.2151767  16.3845799  34.5513386  55.7307647  16.5482924  34.3031554
  53.3645271  18.5745151  19.8694216  53.6598712  17.6655830  19.8161270
  52.4633306  18.5532891  19.5475219  56.8939518  16.6501148  25.8521765
  56.1726103  17.2637116  25.7129238  57.6832773  17.1858913  25.7738411
  59.6965831  13.9855574  32.1262417  60.2200233  14.2317871  32.8888726
  59.4778164  14.8175609  31.7065554  55.0933112  16.2559249  19.9933542
  54.7645818  15.3756628  19.8108648  55.4472483  16.2006918  20.8809931
  58.2074935  16.5432219  20.3609019  58.5471008  17.0718140  19.6387628
  58.6547056  16.8812625  21.1367586  60.9018376  14.9269269  29.8112087
  60.5615197  14.1277082  30.2132767  60.1957382  15.2270980  29.2388921
  61.5534848  12.0118582  28.2639410  62.3760917  11.5379060  28.1418301
  61.7972912  12.7909066  28.7638097  60.1943083  15.0406840  18.5602312
  60.9151445  15.4188093  18.0566029  59.5708387  15.7595717  18.6637290
  64.3374205  15.7451989  19.4960644  64.5537820  16.6276627  19.1949473
  63.8568273  15.3538203  18.7666286  59.0773427  18.7037702  26.0731389
  58.9318008  19.0178006  26.9655670  58.5998630  19.3222603  25.5202288
  60.9369810  15.6940250  26.1212279  60.9231378  14.7981344  25.7844576
  61.6542238  15.7010914  26.7550565  62.7895940  16.1277591  28.1665406
  62.5313718  17.0494661  28.1649736  62.2580981  15.7308025  28.8565870
  53.5519089  21.2443047  29.0119050  53.0072557  22.0202855  29.1439324
  54.4298439  21.5913851  28.8538172  60.3406706  14.5754631  21.3899849
  60.4622617  13.6471277  21.5890736  60.0508748  14.5893317  20.4778164
  63.2097896  12.2609541  24.5266569  63.2319593  12.3248874  23.5718548
  63.6265955  11.4214050  24.7207075  73.5881520  21.9964801  22.5645791
  74.0312666  21.2472126  22.1664914  72.7108031  21.9874937  22.1819523
  54.3385111  20.3712943  31.9049207  53.5966847  20.5195578  32.4913837
  54.0177855  20.6321209  31.0415956  70.6208725  25.9994848  19.5739720
  71.1460049  26.3382120  18.8489040  70.5331077  25.0641863  19.3902855
  54.7841724  28.2578372  23.9359602  55.6099744  27.9582144  23.5558245
  54.4335776  27.4885994  24.3849390  59.7523258  27.6104840  26.0057275
  59.1303267  26.9475545  25.7059503  60.4228125  27.6365972  25.3230923
  52.9850330  26.1764698  24.8948535  52.1482238  25.7486873  24.7132537
  52.9573975  26.3697142  25.8319326  59.8247785  16.0886628  35.5989781
  59.8735941  16.9648751  35.2167551  60.3670299  15.5464021  35.0261424
  70.3102631  26.6327751  34.8790918  69.5198175  26.6151890  34.3395418
  70.0735985  27.1716045  35.6339955  70.4300506  23.4820218  32.1923647
  70.4798511  23.3170225  33.1339170  70.3214429  22.6147477  31.8021528
  59.3136765  26.1608763  19.4815736  59.4624885  26.8444228  18.8282409
  60.1203208  26.1413853  19.9965192  67.7204268  19.4651146  33.5082954
  68.6214131  19.3257611  33.2166951  67.7952243  19.6305601  34.4481131
  62.0547074  16.8418001  32.3536140  61.1850383  17.1351567  32.0818728
  62.2906554  17.4258446  33.0743404  71.9318703  25.9017159  32.4365668
  71.6403511  26.2647140  33.2729129  71.3190834  25.1884168  32.2579001
  73.1314385  23.4670039  24.9568239  73.9661276  23.9059843  25.1205799
  73.2673514  22.9908692  24.1376484  70.1805891  21.0249774  30.9045726
  70.6560013  21.2177420  30.0964578  69.2571456  21.0808960  30.6589110
  57.0689398  22.1873941  20.4876805  56.8235439  21.2836271  20.6857015
  57.2385312  22.1891092  19.5456283  64.7586107  13.0597617  29.8701560
  65.2768051  13.7958644  29.5448049  64.4041240  13.3661611  30.7048319
  56.3385045  17.9202299  17.9862966  55.6454290  17.9946654  17.3303002
  56.0936797  17.1562642  18.5084483  65.0098702   9.4797900  25.3902457
  65.2900455   8.8121089  26.0162883  65.7949309   9.6726996  24.8777121
  62.8132170  28.6556894  16.9527483  62.2406137  29.2747081  16.4997955
  63.3864964  29.2056256  17.4867405  68.8807560  17.9015534  29.1374032
  69.8324983  18.0013632  29.1586256  68.7111010  17.1093803  29.6472116
  66.9021939  14.9871117  29.3233433  66.3071872  15.2676130  28.6279922
  66.6171636  15.4765018  30.0950174  71.3595638  21.1221654  28.2516332
  71.3271958  20.1837654  28.4376015  71.9696261  21.2005690  27.5182157
  63.1978969  19.9917707  14.2943536  64.1438073  19.8623915  14.3631954
  62.8193214  19.2532369  14.7712964  71.5090126  17.9132697  28.2974615
  70.9929175  17.1291154  28.1104544  72.3930075  17.5851414  28.4621134
  69.1700853  11.6573713  24.2570428  68.9725674  11.3488801  25.1413759
  69.7800559  12.3835352  24.3868357  77.1772188  22.1837660  27.3922368
  77.9075576  21.9222949  27.9530072  76.5679133  21.4466382  27.4324436
  75.2587485  20.3245523  27.9896820  74.5320648  20.1901488  27.3813311
  74.8434772  20.6322352  28.7953538  63.0817661  24.0435453  35.7544193
  64.0020671  24.2214052  35.9484239  63.0467244  23.0991498  35.6023892
  61.3821886  17.9167683  14.2298421  60.4753341  17.6200796  14.3061135
  61.6597867  17.6197501  13.3632707  52.2999826  19.2374046  24.6797467
  51.9802610  18.3839355  24.3871841  51.7533254  19.4522625  25.4355435
  56.0779734  21.9536487  28.3966974  56.2965743  22.8853595  28.4155008
  56.4905507  21.5944462  29.1821778  62.9983951  12.4604573  20.3842662
  62.1884680  12.1151658  20.7597908  63.6868368  12.1512116  20.9730274
  64.9274500  11.5382620  22.0066959  65.4805538  11.9578073  22.6656982
  65.1644586  10.6118368  22.0489915  60.9507599  17.5269693  37.7869723
  60.8504326  18.4764050  37.7181814  60.7329141  17.1987932  36.9145793
  60.1520670  14.7754618  14.3710400  61.0139834  15.1009517  14.6306217
  60.3371015  13.9886114  13.8583466  52.1688086  22.8576958  26.6490589
  51.4751558  22.4430911  26.1360543  52.9161077  22.8997494  26.0524008
  68.3053307  13.6483145  21.5145623  67.7251976  14.3067949  21.1323676
  68.0389240  12.8260489  21.1033041  66.7556873  13.0488202  23.7166943
  67.2556652  13.1604737  22.9081262  67.3992481  12.7449255  24.3567752
  60.8138869  20.9566832  36.6034784  60.3305951  21.7567192  36.8098673
  60.8999808  20.9674777  35.6502228  54.0824829  22.7895212  24.5256604
  54.0595517  22.8882899  23.5738487  54.3925465  23.6360362  24.8473770
  56.7412207  24.8471367  28.6403218  57.6955460  24.8155309  28.5733150
  56.5424730  24.3861990  29.4553444  57.3311589  23.4172483  31.2074016
  58.1504478  23.9116561  31.2308853  57.6048396  22.5004451  31.1791583
  67.0878185  15.8083235  20.5701971  66.2004040  16.0932886  20.3522166
  67.5032174  15.6476998  19.7229248  70.4392721  15.8329756  24.2856311
  71.2153111  16.3226209  24.5580927  69.7140855  16.2587810  24.7428180
  72.8765280  16.5457375  25.3430251  73.4709770  16.3053111  24.6323560
  72.9491863  15.8264506  25.9703788  55.0962435  30.3890986  25.6573416
  54.9616903  29.6291387  25.0911414  54.6794498  31.1131886  25.1902205
  66.2321398  25.5727910  14.6649991  66.9357248  25.7777912  15.2807647
  65.5084047  26.1404672  14.9299075  67.0619209  21.3237771  20.7852262
  67.0054410  21.7806322  19.9459894  67.6147551  20.5628456  20.6075104
  70.8724015  17.1127503  21.6102381  70.6160949  16.7124139  22.4410589
  70.2476883  17.8271297  21.4852520  75.1836352  19.8523576  24.1173672
  74.6235910  19.9216765  24.8905235  74.5779856  19.6764561  23.3973169
  58.2531561  31.2860303  25.8691859  58.1363945  32.2305736  25.7670549
  57.4324007  30.9833865  26.2577658  68.1408096  26.0110439  16.7148451
  68.9753700  25.5791637  16.5325926  67.9792439  25.8392453  17.6425346
  67.7953988  22.5142552  18.0804791  67.7402792  22.3486824  17.1393235
  67.1700043  23.2218585  18.2366980  52.5846503  17.7510617  31.9066213
  53.2305367  17.2409571  32.3953438  52.3763654  18.4879298  32.4809638
  65.1099895  24.8191464  37.4058354  65.9791055  24.9932116  37.0444988
  64.6306647  25.6385881  37.2834083  61.1050113  12.0150661  17.6590109
  61.0928783  12.9592501  17.8158380  61.9973535  11.8320807  17.3649570
  59.2786075  31.9388565  29.0847787  60.1813322  31.9712175  29.4014282
  59.0523445  31.0089016  29.0994123  64.9202233   8.6093438  21.9136046
  64.1534629   8.0551925  22.0592728  65.3312938   8.6815307  22.7750198
  56.9243994  14.8978234  36.0041227  57.7875455  14.5415039  36.2144552
  56.3509405  14.5592129  36.6916631  75.0168452  42.0013962  18.0476509
  74.3656431  42.5868043  17.6610523  75.8112814  42.5320157  18.1071546
  68.9424079  39.0903099  18.4463643  69.7154955  38.5432087  18.3076519
  69.2949478  39.9547349  18.6578104  70.7809121  40.4179482  31.6530542
  70.4898987  41.3225113  31.5377209  71.4166106  40.4596009  32.3674612
  81.7242066  34.1906777  24.7889815  82.4567238  33.6205994  25.0227644
  80.9681422  33.8028378  25.2296320  79.2467487  27.9028351  29.2484423
  78.9150812  28.7723762  29.0245638  78.6513100  27.5864635  29.9278454
  73.2137016  34.0413083  34.2712671  72.4370350  34.6007003  34.2615535
  73.8527579  34.5269866  34.7927541  81.0057797  30.8239876  28.1055647
  80.3632177  31.1172409  27.4595442  80.5012725  30.7092796  28.9108844
  71.4683388  36.8498536  33.8330638  72.2098073  37.3883580  33.5565461
  70.7620374  37.4764825  33.9902189  73.2969798  33.9300284  29.8036356
  74.1430993  34.3539697  29.9471005  73.2368436  33.2733908  30.4974919
  81.1456774  40.4883305  23.5399452  80.4607813  40.8682207  22.9896485
  81.2300624  41.0978632  24.2731400  76.4469243  31.5904652  31.4617530
  76.2030175  32.3446712  30.9251805  76.7229174  31.9690000  32.2964777
  76.0033935  30.7461085  27.0431367  75.1418414  31.0442339  27.3348105
  76.0296370  30.9631484  26.1112400  87.6059527  37.3553968  24.6602124
  86.8523235  36.7861366  24.5046129  87.7407068  37.3216633  25.6072759
  72.9958155  42.2267371  20.3356843  72.8603830  43.0718906  20.7641691
  73.5367968  42.4286648  19.5722777  66.4487552  39.7442809  20.9084769
  66.9612073  40.5386059  21.0590333  67.1010265  39.0469099  20.8418370
  72.3993456  29.7216829  34.5891455  73.1403169  30.3223983  34.5095918
  72.6311378  28.9794467  34.0309498  74.6226631  42.8490937  34.4657186
  74.1790486  42.0627316  34.1478090  75.2843845  43.0370088  33.8001076
  76.3450619  25.7497932  28.8655737  76.0014888  26.6399574  28.7894848
  76.7129581  25.5599590  28.0025322  64.4136469  38.0731463  21.6844339
  65.2511691  38.4828471  21.4678047  64.5914737  37.1330905  21.6544533
  75.4247159  28.1202588  26.8304970  74.9211955  28.0832723  26.0172775
  75.7177766  29.0295330  26.8901627  71.6690045  28.2041317  25.8371152
  72.5343042  28.0084126  25.4777041  71.7367554  27.9751669  26.7640509
  81.2835175  38.4938898  19.3081346  80.5064618  38.1550058  18.8636508
  81.9626656  38.4991521  18.6336311  71.5775032  27.3084774  21.9362588
  70.9239444  26.9933791  21.3119203  71.5355506  26.6860515  22.6622411
  72.6886237  37.5904069  13.8515880  71.7813298  37.3593323  14.0507029
  73.1857269  36.7941688  14.0389862  75.5954315  46.3001576  16.7712566
  74.9216014  46.6033273  17.3797524  75.9820137  47.1030657  16.4218023
  79.0993737  41.3023254  22.1431038  78.6456064  40.4614163  22.1996228
  78.4687704  41.9384652  22.4805818  77.5426677  43.1399750  23.0780856
  77.8349651  43.7004807  22.3593222  78.0525297  43.4328311  23.8334015
  78.1438284  25.0091492  23.9673475  78.4497161  24.1488855  23.6799390
  78.8690889  25.6009112  23.7672469  73.5650558  39.2325408  15.7127949
  73.1269988  38.5161267  15.2533586  74.3060999  39.4601523  15.1513040
  81.6823673  37.5082605  21.7704267  81.5441571  37.6984201  20.8425457
  81.3259891  38.2701988  22.2272319  74.2244912  29.5040723  31.8138752
  73.5772827  30.2030673  31.7203228  74.9945928  29.9376867  32.1815000
  77.6323710  39.7689575  34.8889305  77.4809217  39.5400127  33.9719389
  77.6228390  40.7260177  34.9020650  73.7945531  46.4681249  18.9859646
  73.9697286  45.9969292  19.8005268  73.1078319  47.0947015  19.2140906
  68.3606616  49.6170612  25.7599506  68.6003214  50.2489136  26.4378524
  67.5175812  49.2658652  26.0464865  75.9720907  30.4716133  24.3178037
  76.4689607  29.7186096  23.9979107  75.2007889  30.5080450  23.7521246
  83.8250665  36.1756499  25.9596328  83.8140541  37.0581214  25.5890261
  82.9568044  35.8228050  25.7650865  80.4423239  35.0705140  22.4266494
  80.9083692  35.9033132  22.3526797  80.8930740  34.6050122  23.1311753
  70.3845075  43.0731011  31.1404739  71.0854534  43.7067494  31.2934133
  69.9140190  43.4145743  30.3800379  78.5099471  41.4148961  19.4252646
  78.7859314  41.3005556  20.3346520  77.6403969  41.0166446  19.3864819
  78.4139902  27.4385727  26.4657396  77.5002982  27.6689954  26.6339602
  78.8433004  27.5224171  27.3171428  75.4795700  44.5903497  20.3300508
  76.0083467  44.0795952  19.7170670  75.7423920  44.2746027  21.1946041
  74.2333934  36.3695430  35.4523327  73.5574571  36.2689559  36.1225702
  75.0561568  36.2134644  35.9159324  77.8267591  42.5023615  35.5429597
  78.3707495  43.1153573  35.0484552  77.2454436  43.0603193  36.0596610
  71.7412131  30.2561187  29.8112087  71.4008951  29.4569000  30.2132767
  71.0351137  30.5562898  29.2388921  72.3928603  27.3410499  28.2639410
  73.2154672  26.8670978  28.1418301  72.6366666  28.1200983  28.7638097
  73.6289695  31.4569508  28.1665406  73.3707473  32.3786579  28.1649736
  73.0974735  31.0599943  28.8565870  78.5735884  44.5620295  20.9455491
  78.7472761  43.9966718  20.1929344  79.0664775  45.3621190  20.7634981
  74.0491650  27.5901459  24.5266569  74.0713347  27.6540792  23.5718548
  74.4659709  26.7505967  24.7207075  84.4275275  37.3256718  22.5645791
  84.8706421  36.5764044  22.1664914  83.5501785  37.3166855  22.1819523
  79.5611056  43.8787060  18.0452390  80.2561961  44.4993753  18.2639704
  79.9034206  43.0282411  18.3204768  81.4602479  41.3286765  19.5739720
  81.9853803  41.6674038  18.8489040  81.3724832  40.3933781  19.3902855
  73.1222528  45.2420839  31.7029597  73.4309654  44.9969986  32.5752297
  73.9198010  45.4467478  31.2148467  81.1496385  41.9619669  34.8790918
  80.3591929  41.9443808  34.3395418  80.9129740  42.5007963  35.6339955
  70.1530519  41.4900681  19.4815736  70.3018639  42.1736145  18.8282409
  70.9596963  41.4705771  19.9965192  78.5598023  34.7943063  33.5082954
  79.4607886  34.6549528  33.2166951  78.6345997  34.9597518  34.4481131
  72.8940828  32.1709918  32.3536140  72.0244137  32.4643484  32.0818728
  73.1300308  32.7550363  33.0743404  82.7712457  41.2309077  32.4365668
  82.4797265  41.5939057  33.2729129  82.1584588  40.5176085  32.2579001
  83.9708140  38.7961957  24.9568239  84.8055031  39.2351761  25.1205799
  84.1067268  38.3200610  24.1376484  75.8492456  24.8089818  25.3902457
  76.1294210  24.1413007  26.0162883  76.6343063  25.0018913  24.8777121
  79.7201314  33.2307452  29.1374032  80.6718737  33.3305549  29.1586256
  79.5504765  32.4385720  29.6472116  77.7415694  30.3163035  29.3233433
  77.1465626  30.5968048  28.6279922  77.4565391  30.8056936  30.0950174
  76.8723184  44.2685962  18.0836065  77.8053858  44.2031523  18.2868941
  76.7846397  45.1042229  17.6250598  79.5011201  43.5851832  15.0440013
  79.4224833  43.2511696  15.9375771  80.3220868  44.0773600  15.0431485
  82.1989392  36.4513571  28.2516332  82.1665712  35.5129572  28.4376015
  82.8090016  36.5297608  27.5182157  82.3483881  33.2424615  28.2974615
  81.8322929  32.4583071  28.1104544  83.2323829  32.9143331  28.4621134
  80.0094608  26.9865630  24.2570428  79.8119429  26.6780719  25.1413759
  80.6194313  27.7127269  24.3868357  88.0165942  37.5129578  27.3922368
  88.7469331  37.2514866  27.9530072  87.4072888  36.7758300  27.4324436
  86.0981239  35.6537441  27.9896820  85.3714403  35.5193406  27.3813311
  85.6828526  35.9614269  28.7953538  73.9211416  39.3727370  35.7544193
  74.8414425  39.5505969  35.9484239  73.8860999  38.4283416  35.6023892
  73.8377706  27.7896490  20.3842662  73.0278434  27.4443575  20.7597908
  74.5262123  27.4804034  20.9730274  75.7668254  26.8674537  22.0066959
  76.3199293  27.2869991  22.6656982  76.0038341  25.9410285  22.0489915
  79.1447061  28.9775062  21.5145623  78.5645730  29.6359866  21.1323676
  78.8782994  28.1552407  21.1033041  77.5950628  28.3780120  23.7166943
  78.0950406  28.4896655  22.9081262  78.2386236  28.0741173  24.3567752
  77.9271939  31.1375153  20.5701971  77.0397794  31.4224803  20.3522166
  78.3425928  30.9768916  19.7229248  81.2786475  31.1621674  24.2856311
  82.0546866  31.6518126  24.5580927  80.5534610  31.5879728  24.7428180
  83.7159034  31.8749293  25.3430251  84.3103525  31.6345029  24.6323560
  83.7885618  31.1556424  25.9703788  77.0715153  40.9019827  14.6649991
  77.7751003  41.1069830  15.2807647  76.3477802  41.4696589  14.9299075
  81.7117769  32.4419421  21.6102381  81.4554703  32.0416056  22.4410589
  81.0870637  33.1563214  21.4852520  86.0230107  35.1815494  24.1173672
  85.4629665  35.2508683  24.8905235  85.4173610  35.0056478  23.3973169
  78.9801850  41.3402357  16.7148451  79.8147454  40.9083555  16.5325926
  78.8186193  41.1684370  17.6425346  75.9493650  40.1483382  37.4058354
  76.8184809  40.3224034  37.0444988  75.4700401  40.9677799  37.2834083
  71.9443868  27.3442579  17.6590109  71.9322538  28.2884419  17.8158380
  72.8367290  27.1612724  17.3649570  75.7595987  23.9385356  21.9136046
  74.9928383  23.3843842  22.0592728  76.1706692  24.0107224  22.7750198
  87.6086125  51.8572008  26.8103628  88.2464535  51.7378755  26.1066968
  87.4906968  52.8052852  26.8691580  84.4175832  51.8099436  26.7465153
  84.0794343  51.6940501  25.8585688  85.2865600  51.4090601  26.7266159
  80.2762647  53.6634912  22.7362044  79.7127512  53.5724849  21.9678332
  80.1615042  52.8434817  23.2164536  84.8995615  52.9634288  32.7051358
  84.8884255  52.5687086  31.8331862  85.0616254  52.2300360  33.2985130
  77.8227079  55.1586104  25.5746264  78.6148371  54.8176928  25.1592564
  78.0623729  55.2681079  26.4948418  85.8562206  57.3305880  18.0476509
  85.2050186  57.9159960  17.6610523  86.6506569  57.8612075  18.1071546
  79.7817833  54.4195017  18.4463643  80.5548709  53.8724004  18.3076519
  80.1343232  55.2839266  18.6578104  81.6202876  55.7471399  31.6530542
  81.3292742  56.6517030  31.5377209  82.2559860  55.7887927  32.3674612
  82.5459083  53.1248248  28.2431902  83.1422655  52.9004270  27.5288865
  82.6034054  52.3832993  28.8457350  82.1184111  50.5787683  16.0782093
  82.3709632  50.0569204  15.3165556  81.1808670  50.4153829  16.1808777
  87.1627394  49.5823462  23.8856836  87.9490483  49.1642885  23.5347253
  87.4266098  50.4869554  24.0538485  87.3337471  55.0196312  18.5845493
  86.6983304  55.0930938  19.2966398  87.0034878  55.6089911  17.9064572
  92.5635821  49.5198695  24.7889815  93.2960993  48.9497912  25.0227644
  91.8075177  49.1320295  25.2296320  81.8380400  52.4815789  18.2806468
  81.7216658  51.8060693  18.9487552  81.9482660  51.9948163  17.4638621
  84.1811941  51.9425936  21.9853157  83.8170148  51.4156557  22.6966079
  85.0379057  51.5524405  21.8119643  90.0861241  43.2320269  29.2484423
  89.7544566  44.1015680  29.0245638  89.4906855  42.9156553  29.9278454
  83.8217428  46.9715836  16.9814506  83.9891830  47.8396072  17.3484977
  83.6314597  47.1343118  16.0575795  86.5792761  55.4332815  28.6480336
  86.2793484  56.3357854  28.5396143  86.2343820  55.1664998  29.5001489
  80.0305242  51.8846612  24.6817040  79.1055739  51.7522826  24.8894732
  80.2789655  52.6640831  25.1786983  89.9789905  47.9515355  26.3277773
  89.0706782  47.8830764  26.0336534  89.9277500  48.4287300  27.1559599
  83.8006649  49.4273493  17.9661173  83.6806274  49.8730544  18.8046653
  83.1059237  49.7758811  17.4074711  77.3914053  51.5279885  25.5160830
  77.5206434  51.7814364  26.4300241  76.7111505  52.1207593  25.1965485
  81.5613541  62.1977135  21.6151304  81.4837570  63.1484960  21.6939784
  80.9575184  61.8523008  22.2726230  84.0530770  49.3705001  34.2712671
  83.2764104  49.9298921  34.2615535  84.6921333  49.8561784  34.7927541
  91.8451551  46.1531793  28.1055647  91.2025931  46.4464327  27.4595442
  91.3406480  46.0384714  28.9108844  89.4991715  49.8994967  18.7941507
  90.4109571  50.1322353  18.6189204  88.9901362  50.4832011  18.2316585
  82.3077143  52.1790454  33.8330638  83.0491827  52.7175498  33.5565461
  81.6014128  52.8056743  33.9902189  87.7832482  54.3219594  32.4302799
  88.1915838  53.8802005  31.6857432  87.0609744  53.7472222  32.6836992
  84.1363552  49.2592201  29.8036356  84.9824748  49.6831615  29.9471005
  84.0762190  48.6025826  30.4974919  88.1061297  54.8820785  26.1855088
  87.4770159  55.0466499  25.4831156  87.7186959  55.2962395  26.9566052
  91.9850529  55.8175223  23.5399452  91.3001567  56.1974124  22.9896485
  92.0694378  56.4270550  24.2731400  87.2862998  46.9196570  31.4617530
  87.0423930  47.6738630  30.9251805  87.5622928  47.2981917  32.2964777
  89.2401460  53.4635182  30.1394795  89.4518356  54.1066942  29.4629176
  89.1931209  52.6297499  29.6716725  86.8427689  46.0753003  27.0431367
  85.9812168  46.3734256  27.3348105  86.8690124  46.2923402  26.1112400
  83.6589259  54.6195193  23.4505173  84.1227604  54.8982896  22.6609796
  83.3946057  53.7178638  23.2678264  80.5513340  54.1666675  26.3884936
  81.1214697  54.5953943  25.7502421  81.1421452  53.8849259  27.0869122
  82.5958145  50.7418346  20.2594738  83.2982188  51.1939389  20.7268665
  82.2638773  50.1002164  20.8874631  81.0438506  49.3330102  34.6345948
  80.4137167  50.0146383  34.8681344  80.9374594  49.2213184  33.6899086
  90.3547288  56.3407137  28.3117153  91.1764732  55.9387325  28.0299834
  90.3509691  56.2375372  29.2633268  78.2898224  49.3646477  22.5195349
  77.4929388  49.4765172  23.0378844  78.0623816  49.7033130  21.6536239
  84.1203892  55.8891181  30.4677863  84.1848324  56.3511588  31.3036035
  83.4114816  55.2588546  30.5960173  98.4453281  52.6845886  24.6602124
  97.6916990  52.1153284  24.5046129  98.5800823  52.6508550  25.6072759
  83.8351910  57.5559288  20.3356843  83.6997584  58.4010824  20.7641691
  84.3761722  57.7578566  19.5722777  80.3219249  43.6350868  36.9971199
  79.9286195  43.0817067  37.6718843  81.1385389  43.9461447  37.3877716
  77.2881307  55.0734726  20.9084769  77.8005827  55.8677976  21.0590333
  77.9404020  54.3761017  20.8418370  79.0976192  58.1900483  22.9907522
  79.2742820  59.1118447  22.8028506  79.8933025  57.8758902  23.4201902
  83.2387210  45.0508747  34.5891455  83.9796924  45.6515900  34.5095918
  83.4705133  44.3086385  34.0309498  78.3828548  50.2365114  32.8669685
  78.2682063  49.3350372  33.1676784  77.5273066  50.4828811  32.5154501
  85.4620386  58.1782855  34.4657186  85.0184240  57.3919233  34.1478090
  86.1237599  58.3662005  33.8001076  80.2207507  59.7078656  28.9917864
  80.7714932  59.5795720  28.2194858  79.3818983  60.0073545  28.6412757
  87.5601624  58.4585655  32.4938587  87.5420099  59.2794536  32.0018856
  88.4821544  58.3339730  32.7188728  84.0174678  55.9729784  33.3362095
  84.5503015  55.2118072  33.1061403  83.4888759  55.6803436  34.0786250
  87.1844373  41.0789850  28.8655737  86.8408642  41.9691492  28.7894848
  87.5523336  40.8891508  28.0025322  75.2530224  53.4023381  21.6844339
  76.0905446  53.8120389  21.4678047  75.4308491  52.4622823  21.6544533
  87.1494656  51.0698461  17.3728172  86.6341279  51.8403066  17.6116559
  86.8771964  50.3963597  17.9961234  84.7341767  45.9148162  22.4313410
  83.8783363  45.5255012  22.2519049  85.1468719  45.9940123  21.5713196
  86.2640913  43.4494505  26.8304970  85.7605709  43.4124640  26.0172775
  86.5571520  44.3587248  26.8901627  92.1228930  53.8230816  19.3081346
  91.3458373  53.4841975  18.8636508  92.8020411  53.8283439  18.6336311
  86.9380959  48.9425553  19.1987953  86.6331095  49.2571702  20.0498096
  87.8911401  49.0206973  19.2415286  85.3827391  55.1015777  20.8480907
  84.8548752  54.3668536  20.5354145  84.8814894  55.8790453  20.6020876
  90.3620237  53.2964797  25.9647954  89.7043911  53.9864058  26.0528082
  91.1660636  53.6861229  26.3081940  80.1146118  45.7635443  23.2087519
  80.6889870  45.5410624  22.4760712  80.7017101  45.8324137  23.9616120
  89.1725696  51.6509170  24.0151895  89.6857577  52.2839162  24.5173605
  89.8226920  51.0510365  23.6495255  80.4415706  47.7939904  17.2283404
  79.6053018  48.1314590  17.5492679  80.3020475  47.6588884  16.2910541
  82.4168786  42.6376692  21.9362588  81.7633198  42.3225709  21.3119203
  82.3749260  42.0152432  22.6622411  83.5279991  52.9195987  13.8515880
  82.6207053  52.6885240  14.0507029  84.0251023  52.1233606  14.0389862
  86.4348070  61.6293494  16.7712566  85.7609769  61.9325191  17.3797524
  86.8213892  62.4322574  16.4218023  85.6506527  49.1258625  26.2610236
  84.7329088  49.3473572  26.1031924  86.0666670  49.2004936  25.4021943
  86.4341574  50.5250041  21.3912916  87.1813393  51.0371438  21.0820038
  86.7033164  50.2034094  22.2517310  84.7068224  53.0208582  18.3739870
  83.7979444  52.7367615  18.4712340  84.7363308  53.4407660  17.5143177
  89.9387492  56.6315171  22.1431038  89.4849819  55.7906081  22.1996228
  89.3081459  57.2676570  22.4805818  88.8820411  47.5607157  23.3731705
  88.1443168  47.0484543  23.7041948  89.1347185  47.1207539  22.5614982
  88.3820431  58.4691668  23.0780856  88.6743405  59.0296725  22.3593222
  88.8919052  58.7620229  23.8334015  88.9832039  40.3383409  23.9673475
  89.2890916  39.4780773  23.6799390  89.7084644  40.9301029  23.7672469
  75.2756395  50.7414096  22.3555073  75.0780795  50.1483457  21.6306139
  74.7203059  50.4366306  23.0731011  83.2553118  50.6337202  24.4749666
  83.3101728  49.6811039  24.3992142  82.4444321  50.7896641  24.9590964
  84.4044312  54.5617325  15.7127949  83.9663742  53.8453184  15.2533586
  85.1454753  54.7893440  15.1513040  81.1945478  49.2514262  22.2340045
  80.3813344  49.5508433  22.6405237  81.6904473  48.8569951  22.9514527
  83.3454056  59.2472019  24.1674309  83.3030235  59.4732865  23.2382841
  84.2616755  59.0135394  24.3160110  86.7919690  49.7156087  31.0654938
  87.1469078  49.9427560  31.9249404  87.4391821  50.0474463  30.4432194
  92.5217427  52.8374522  21.7704267  92.3835326  53.0276118  20.8425457
  92.1653646  53.5993905  22.2272319  92.5486807  54.9051049  26.7815539
  92.9823313  54.8126339  27.6298593  93.2618387  54.8808550  26.1435555
  81.4619857  56.1235048  23.9636272  82.2560456  55.6285368  23.7618847
  80.7511549  55.5952911  23.6003978  86.2814702  58.5053144  28.3148640
  86.3351724  59.0744080  29.0826356  85.4129483  58.6755029  27.9502677
  77.7702621  50.2678130  20.0396025  76.8400209  50.2062585  20.2565987
  77.8660093  49.7454083  19.2432666  77.6888170  46.7932943  22.6274266
  77.9494987  47.7078276  22.5183427  78.5105342  46.3257385  22.7770879
  93.4102356  54.9474750  29.3148424  93.6038246  55.8520561  29.5607699
  93.3102974  54.4882169  30.1487009  85.0638667  44.8332641  31.8138752
  84.4166582  45.5322590  31.7203228  85.8339682  45.2668785  32.1815000
  88.4717465  55.0981493  34.8889305  88.3202971  54.8692045  33.9719389
  88.4622144  56.0552094  34.9020650  85.2402801  52.6713406  29.8735571
  86.1694861  52.8224565  29.7004539  84.8193831  52.7597426  29.0184218
  84.0391133  56.6964070  27.6434109  83.9002219  56.3282854  28.5160047
  83.2505729  57.2111709  27.4718067  84.6339285  61.7973166  18.9859646
  84.8091041  61.3261210  19.8005268  83.9472073  62.4238933  19.2140906
  85.5896348  56.0745673  25.0322947  85.2546181  56.0346443  25.9280597
  85.0900294  55.4090389  24.5593357  79.5640592  51.4813303  30.5575528
  79.4260390  50.7493542  31.1587067  80.4745516  51.3922203  30.2759716
  88.5255540  53.4201707  15.3060007  87.9084711  52.6948535  15.2093059
  88.0572028  54.1811067  14.9627081  82.1922893  51.1933262  30.0459208
  82.9022511  50.5526454  30.0045826  82.1492201  51.4446157  30.9685388
  90.1809672  58.1300615  32.9665787  90.1222218  57.4459836  32.2996370
  90.5829190  58.8719605  32.5146413  80.9051827  48.1798480  31.8654847
  80.3689184  47.7289218  32.5176443  80.3168535  48.3144389  31.1225311
  79.2000370  64.9462529  25.7599506  79.4396969  65.5781053  26.4378524
  78.3569567  64.5950569  26.0464865  80.3154086  47.6387131  14.4281311
  79.4383552  47.5175932  14.0643557  80.7911839  46.8473210  14.1760199
  90.1827079  56.0940199  31.1979767  89.2953858  55.7566121  31.3206165
  90.7525630  55.3623231  31.4348532  71.8356226  52.4264291  24.5222818
  72.5227266  52.1126021  23.9343833  71.6804355  53.3305656  24.2490069
  83.7128232  60.7541652  28.1641010  83.6398404  61.5596623  28.6760314
  83.2705625  60.9533617  27.3389031  83.5018012  59.9913422  21.6743831
  82.7185534  60.5335102  21.7682056  84.2010757  60.5087401  22.0738072
  86.8114662  45.8008051  24.3178037  87.3083361  45.0478013  23.9979107
  86.0401643  45.8372368  23.7521246  94.6644419  51.5048417  25.9596328
  94.6534296  52.3873132  25.5890261  93.7961799  51.1519968  25.7650865
  86.1726916  60.6528486  30.3199168  86.8854888  61.2875951  30.2475070
  85.6816944  60.7492352  29.5039170  87.8944443  54.5579738  21.8916460
  86.9600721  54.6781201  21.7221164  88.0721111  53.6552205  21.6276470
  83.3949631  47.9425434  24.0449721  83.0247418  47.3896475  24.7330627
  83.8908723  47.3383568  23.4924721  91.2816994  50.3997058  22.4266494
  91.7477446  51.2325049  22.3526797  91.7324494  49.9342039  23.1311753
  81.2238829  58.4022929  31.1404739  81.9248289  59.0359412  31.2934133
  80.7533944  58.7437661  30.3800379  89.3493225  56.7440879  19.4252646
  89.6253069  56.6297474  20.3346520  88.4797724  56.3458364  19.3864819
  89.2533657  42.7677645  26.4657396  88.3396737  42.9981872  26.6339602
  89.6826758  42.8516089  27.3171428  89.0240115  50.9567537  28.9657290
  88.3711565  51.2043444  28.3109742  89.4020495  50.1431675  28.6319767
  85.9847289  60.9927230  23.0685460  86.1669684  60.1748886  23.5313212
  86.8080275  61.2094922  22.6310350  86.3189455  59.9195415  20.3300508
  86.8477221  59.4087870  19.7170670  86.5817674  59.6037945  21.1946041
  85.0727688  51.6987348  35.4523327  84.3968325  51.5981477  36.1225702
  85.8955322  51.5426561  35.9159324  76.8206547  57.9359284  28.0735842
  77.4059984  57.1902972  28.2063746  76.6231386  58.2463241  28.9572506
  79.6745203  60.9710532  23.0898284  79.0055578  61.4556659  22.6062324
  79.5358072  61.2179752  24.0041663  83.8150471  63.0054275  29.6880943
  84.3668779  63.1685897  30.4530028  84.1556665  63.5958713  29.0160968
  78.2667237  47.4252557  33.9375862  78.8939276  47.0429635  34.5513386
  77.4095156  47.2066759  34.3031554  88.6661345  57.8315533  35.5429597
  89.2101249  58.4445491  35.0484552  88.0848190  58.3895111  36.0596610
  75.0432780  49.2328987  19.8694216  75.3386221  48.3239665  19.8161270
  74.1420815  49.2116726  19.5475219  86.9518858  60.9536251  26.6744625
  86.8269998  60.1525991  26.1655570  87.6097950  61.4482444  26.1858595
  89.0153767  58.7545271  28.3024175  88.0684102  58.6350622  28.2302502
  89.3636540  57.8667769  28.3850436  76.7720621  46.9143084  19.9933542
  76.4433327  46.0340463  19.8108648  77.1259992  46.8590753  20.8809931
  86.0200200  58.5497987  24.5028527  85.8725163  57.6214694  24.6836097
  86.8453694  58.5718078  24.0185602  79.8862444  47.2016054  20.3609019
  80.2258517  47.7301975  19.6387628  80.3334565  47.5396460  21.1367586
  89.6234322  59.3726546  25.5893400  90.5480869  59.1669407  25.4517851
  89.4549625  59.1242947  26.4982741  81.8730592  45.6990676  18.5602312
  82.5938954  46.0771928  18.0566029  81.2495896  46.4179552  18.6637290
  86.0161714  46.4035825  19.4960644  86.2325329  47.2860462  19.1949473
  85.5355782  46.0122038  18.7666286  80.7560936  49.3621538  26.0731389
  80.6105516  49.6761841  26.9655670  80.2786139  49.9806438  25.5202288
  82.6157319  46.3524086  26.1212279  82.6018887  45.4565179  25.7844576
  83.3329747  46.3594750  26.7550565  84.4683449  46.7861426  28.1665406
  84.2101227  47.7078497  28.1649736  83.9368490  46.3891861  28.8565870
  89.4129638  59.8912213  20.9455491  89.5866516  59.3258636  20.1929344
  89.9058529  60.6913108  20.7634981  75.2306598  51.9026882  29.0119050
  74.6860066  52.6786690  29.1439324  76.1085948  52.2497687  28.8538172
  82.0194215  45.2338466  21.3899849  82.1410126  44.3055112  21.5890736
  81.7296257  45.2477152  20.4778164  84.8885405  42.9193377  24.5266569
  84.9107102  42.9832710  23.5718548  85.3053464  42.0797885  24.7207075
  95.2669029  52.6548636  22.5645791  95.7100175  51.9055961  22.1664914
  94.3895540  52.6458772  22.1819523  90.4004811  59.2078978  18.0452390
  91.0955715  59.8285670  18.2639704  90.7427961  58.3574329  18.3204768
  76.0172620  51.0296778  31.9049207  75.2754356  51.1779414  32.4913837
  75.6965364  51.2905044  31.0415956  92.2996234  56.6578683  19.5739720
  92.8247558  56.9965956  18.8489040  92.2118586  55.7225698  19.3902855
  83.9616282  60.5712757  31.7029597  84.2703409  60.3261903  32.5752297
  84.7591764  60.7759395  31.2148467  83.9836894  62.7250666  23.9334974
  83.5441885  62.2327045  24.6267830  84.7345011  62.1823634  23.6927049
  76.4629233  58.9162207  23.9359602  77.2887253  58.6165979  23.5558245
  76.1123285  58.1469830  24.3849390  81.4310767  58.2688675  26.0057275
  80.8090776  57.6059380  25.7059503  82.1015634  58.2949807  25.3230923
  74.6637839  56.8348534  24.8948535  73.8269747  56.4070708  24.7132537
  74.6361484  57.0280977  25.8319326  81.5035294  46.7470463  35.5989781
  81.5523450  47.6232586  35.2167551  82.0457808  46.2047857  35.0261424
  91.9890140  57.2911587  34.8790918  91.1985684  57.2735726  34.3395418
  91.7523494  57.8299880  35.6339955  92.1088015  54.1404053  32.1923647
  92.1586020  53.9754061  33.1339170  92.0001938  53.2731312  31.8021528
  80.9924274  56.8192599  19.4815736  81.1412394  57.5028063  18.8282409
  81.7990717  56.7997689  19.9965192  89.3991777  50.1234981  33.5082954
  90.3001640  49.9841446  33.2166951  89.4739752  50.2889436  34.4481131
  83.7334583  47.5001836  32.3536140  82.8637892  47.7935402  32.0818728
  83.9694063  48.0842281  33.0743404  93.6106212  56.5600995  32.4365668
  93.3191020  56.9230975  33.2729129  92.9978343  55.8468003  32.2579001
  94.8101894  54.1253874  24.9568239  95.6448785  54.5643678  25.1205799
  94.9461023  53.6492528  24.1376484  91.8593400  51.6833609  30.9045726
  92.3347522  51.8761256  30.0964578  90.9358965  51.7392795  30.6589110
  78.7476907  52.8457776  20.4876805  78.5022948  51.9420106  20.6857015
  78.9172821  52.8474927  19.5456283  86.4373616  43.7181453  29.8701560
  86.9555560  44.4542480  29.5448049  86.0828749  44.0245446  30.7048319
  78.0172554  48.5786134  17.9862966  77.3241799  48.6530489  17.3303002
  77.7724306  47.8146478  18.5084483  86.6886211  40.1381735  25.3902457
  86.9687964  39.4704924  26.0162883  87.4736818  40.3310831  24.8777121
  84.4919679  59.3140729  16.9527483  83.9193646  59.9330916  16.4997955
  85.0652473  59.8640091  17.4867405  90.5595069  48.5599369  29.1374032
  91.5112492  48.6597467  29.1586256  90.3898519  47.7677638  29.6472116
  88.5809448  45.6454953  29.3233433  87.9859381  45.9259965  28.6279922
  88.2959145  46.1348853  30.0950174  87.7116939  59.5977879  18.0836065
  88.6447612  59.5323441  18.2868941  87.6240152  60.4334146  17.6250598
  90.3404956  58.9143750  15.0440013  90.2618587  58.5803613  15.9375771
  91.1614622  59.4065518  15.0431485  93.0383147  51.7805489  28.2516332
  93.0059467  50.8421490  28.4376015  93.6483770  51.8589526  27.5182157
  84.8766478  50.6501542  14.2943536  85.8225582  50.5207750  14.3631954
  84.4980723  49.9116204  14.7712964  93.1877635  48.5716532  28.2974615
  92.6716684  47.7874989  28.1104544  94.0717584  48.2435249  28.4621134
  90.8488362  42.3157548  24.2570428  90.6513183  42.0072636  25.1413759
  91.4588068  43.0419187  24.3868357  98.8559697  52.8421496  27.3922368
  99.5863085  52.5806784  27.9530072  98.2466642  52.1050218  27.4324436
  96.9374994  50.9829358  27.9896820  96.2108157  50.8485323  27.3813311
  96.5222281  51.2906187  28.7953538  84.7605170  54.7019288  35.7544193
  85.6808180  54.8797887  35.9484239  84.7254753  53.7575333  35.6023892
  83.0609395  48.5751518  14.2298421  82.1540850  48.2784631  14.3061135
  83.3385376  48.2781336  13.3632707  77.7567243  52.6120323  28.3966974
  77.9753252  53.5437431  28.4155008  78.1693016  52.2528297  29.1821778
  84.6771460  43.1188408  20.3842662  83.8672189  42.7735493  20.7597908
  85.3655877  42.8095952  20.9730274  86.6062009  42.1966455  22.0066959
  87.1593047  42.6161908  22.6656982  86.8432095  41.2702203  22.0489915
  82.6295108  48.1853529  37.7869723  82.5291835  49.1347885  37.7181814
  82.4116650  47.8571767  36.9145793  81.8308179  45.4338454  14.3710400
  82.6927343  45.7593352  14.6306217  82.0158524  44.6469949  13.8583466
  73.8475595  53.5160793  26.6490589  73.1539067  53.1014746  26.1360543
  74.5948586  53.5581330  26.0524008  89.9840816  44.3066980  21.5145623
  89.4039485  44.9651784  21.1323676  89.7176749  43.4844325  21.1033041
  88.4344382  43.7072038  23.7166943  88.9344161  43.8188572  22.9081262
  89.0779990  43.4033091  24.3567752  82.4926378  51.6150667  36.6034784
  82.0093460  52.4151027  36.8098673  82.5787317  51.6258612  35.6502228
  75.7612338  53.4479047  24.5256604  75.7383026  53.5466734  23.5738487
  76.0712974  54.2944198  24.8473770  78.4199716  55.5055202  28.6403218
  79.3742969  55.4739144  28.5733150  78.2212239  55.0445826  29.4553444
  79.0099098  54.0756318  31.2074016  79.8291987  54.5700397  31.2308853
  79.2835905  53.1588286  31.1791583  88.7665694  46.4667070  20.5701971
  87.8791549  46.7516721  20.3522166  89.1819683  46.3060834  19.7229248
  92.1180230  46.4913591  24.2856311  92.8940620  46.9810044  24.5580927
  91.3928364  46.9171646  24.7428180  94.5552789  47.2041211  25.3430251
  95.1497279  46.9636947  24.6323560  94.6279372  46.4848341  25.9703788
  76.7749944  61.0474822  25.6573416  76.6404412  60.2875222  25.0911414
  76.3582007  61.7715721  25.1902205  87.9108907  56.2311745  14.6649991
  88.6144757  56.4361748  15.2807647  87.1871556  56.7988507  14.9299075
  88.7406718  51.9821606  20.7852262  88.6841919  52.4390158  19.9459894
  89.2935060  51.2212291  20.6075104  92.5511524  47.7711338  21.6102381
  92.2948458  47.3707974  22.4410589  91.9264392  48.4855132  21.4852520
  96.8623861  50.5107411  24.1173672  96.3023419  50.5800601  24.8905235
  96.2567365  50.3348396  23.3973169  79.9319070  61.9444139  25.8691859
  79.8151454  62.8889571  25.7670549  79.1111516  61.6417700  26.2577658
  89.8195605  56.6694274  16.7148451  90.6541209  56.2375473  16.5325926
  89.6579948  56.4976288  17.6425346  89.4741497  53.1726388  18.0804791
  89.4190301  53.0070659  17.1393235  88.8487552  53.8802421  18.2366980
  74.2634012  48.4094452  31.9066213  74.9092875  47.8993406  32.3953438
  74.0551163  49.1463134  32.4809638  86.7887404  55.4775299  37.4058354
  87.6578564  55.6515952  37.0444988  86.3094156  56.2969716  37.2834083
  82.7837622  42.6734497  17.6590109  82.7716292  43.6176337  17.8158380
  83.6761044  42.4904642  17.3649570  80.9573584  62.5972400  29.0847787
  81.8600831  62.6296011  29.4014282  80.7310954  61.6672851  29.0994123
  82.7127186  61.3503387  25.7457866  81.7622817  61.3505249  25.6322238
  83.0159672  60.6036122  25.2293900  86.5989742  39.2677273  21.9136046
  85.8322138  38.7135760  22.0592728  87.0100447  39.3399142  22.7750198
  78.6031503  45.5562069  36.0041227  79.4662964  45.1998874  36.2144552
  78.0296914  45.2175964  36.6916631  98.4479880  67.1863925  26.8103628
  99.0858290  67.0670673  26.1066968  98.3300723  68.1344769  26.8691580
  95.2569586  67.1391354  26.7465153  94.9188098  67.0232418  25.8585688
  96.1259354  66.7382519  26.7266159  91.1156402  68.9926830  22.7362044
  90.5521267  68.9016767  21.9678332  91.0008797  68.1726734  23.2164536
  95.7389369  68.2926205  32.7051358  95.7278010  67.8979004  31.8331862
  95.9010009  67.5592278  33.2985130  88.6620834  70.4878022  25.5746264
  89.4542126  70.1468846  25.1592564  88.9017484  70.5972997  26.4948418
  90.6211588  69.7486935  18.4463643  91.3942464  69.2015922  18.3076519
  90.9736987  70.6131184  18.6578104  92.4596630  71.0763317  31.6530542
  92.1686496  71.9808948  31.5377209  93.0953615  71.1179845  32.3674612
  93.3852837  68.4540166  28.2431902  93.9816409  68.2296188  27.5288865
  93.4427809  67.7124911  28.8457350  92.9577865  65.9079601  16.0782093
  93.2103386  65.3861122  15.3165556  92.0202425  65.7445746  16.1808777
  98.0021148  64.9115379  23.8856836  98.7884238  64.4934802  23.5347253
  98.2659853  65.8161471  24.0538485  92.6774154  67.8107707  18.2806468
  92.5610412  67.1352610  18.9487552  92.7876414  67.3240081  17.4638621
  95.0205695  67.2717854  21.9853157  94.6563902  66.7448475  22.6966079
  95.8772811  66.8816323  21.8119643 100.9254996  58.5612187  29.2484423
 100.5938321  59.4307598  29.0245638 100.3300609  58.2448471  29.9278454
  94.6611182  62.3007754  16.9814506  94.8285584  63.1687990  17.3484977
  94.4708351  62.4635035  16.0575795  97.4186515  70.7624733  28.6480336
  97.1187238  71.6649771  28.5396143  97.0737575  70.4956916  29.5001489
  90.8698997  67.2138529  24.6817040  89.9449493  67.0814744  24.8894732
  91.1183410  67.9932749  25.1786983 100.8183659  63.2807273  26.3277773
  99.9100536  63.2122681  26.0336534 100.7671255  63.7579218  27.1559599
  94.6400403  64.7565411  17.9661173  94.5200028  65.2022462  18.8046653
  93.9452991  65.1050729  17.4074711  88.2307808  66.8571803  25.5160830
  88.3600189  67.1106282  26.4300241  87.5505259  67.4499511  25.1965485
  92.4007295  77.5269053  21.6151304  92.3231325  78.4776878  21.6939784
  91.7968939  77.1814925  22.2726230  94.8924525  64.6996918  34.2712671
  94.1157859  65.2590838  34.2615535  95.5315088  65.1853701  34.7927541
 102.6845305  61.4823711  28.1055647 102.0419686  61.7756244  27.4595442
 102.1800234  61.3676631  28.9108844 100.3385469  65.2286884  18.7941507
 101.2503325  65.4614271  18.6189204  99.8295116  65.8123929  18.2316585
  93.1470897  67.5082372  33.8330638  93.8885582  68.0467416  33.5565461
  92.4407883  68.1348660  33.9902189  98.6226237  69.6511512  32.4302799
  99.0309593  69.2093923  31.6857432  97.9003498  69.0764140  32.6836992
  94.9757307  64.5884119  29.8036356  95.8218502  65.0123532  29.9471005
  94.9155945  63.9317743  30.4974919  98.9455051  70.2112703  26.1855088
  98.3163914  70.3758417  25.4831156  98.5580714  70.6254312  26.9566052
 102.8244283  71.1467141  23.5399452 102.1395322  71.5266042  22.9896485
 102.9088133  71.7562467  24.2731400  98.1256752  62.2488487  31.4617530
  97.8817684  63.0030548  30.9251805  98.4016683  62.6273835  32.2964777
 100.0795215  68.7927100  30.1394795 100.2912110  69.4358860  29.4629176
 100.0324963  67.9589416  29.6716725  97.6821444  61.4044920  27.0431367
  96.8205923  61.7026174  27.3348105  97.7083879  61.6215319  26.1112400
  94.4983013  69.9487111  23.4505173  94.9621359  70.2274814  22.6609796
  94.2339811  69.0470555  23.2678264  91.3907094  69.4958592  26.3884936
  91.9608451  69.9245861  25.7502421  91.9815206  69.2141177  27.0869122
  93.4351899  66.0710263  20.2594738  94.1375943  66.5231307  20.7268665
  93.1032528  65.4294082  20.8874631  91.8832261  64.6622020  34.6345948
  91.2530922  65.3438301  34.8681344  91.7768349  64.5505101  33.6899086
  87.1777233  64.3293816  25.5611872  86.3876287  64.5851344  25.0851982
  87.6688481  65.1442154  25.6663912 101.1941043  71.6699055  28.3117153
 102.0158487  71.2679242  28.0299834 101.1903446  71.5667289  29.2633268
  89.1291979  64.6938395  22.5195349  88.3323142  64.8057089  23.0378844
  88.9017571  65.0325047  21.6536239  94.9597646  71.2183098  30.4677863
  95.0242079  71.6803506  31.3036035  94.2508570  70.5880463  30.5960173
  85.4614936  64.5824306  27.9926863  85.7122975  65.4671316  28.2584439
  85.9974485  64.4028908  27.2201954  94.6745664  72.8851206  20.3356843
  94.5391339  73.7302742  20.7641691  95.2155477  73.0870484  19.5722777
  91.1613004  58.9642786  36.9971199  90.7679949  58.4108984  37.6718843
  91.9779144  59.2753364  37.3877716  88.1275061  70.4026644  20.9084769
  88.6399582  71.1969894  21.0590333  88.7797774  69.7052934  20.8418370
  89.9369946  73.5192400  22.9907522  90.1136574  74.4410365  22.8028506
  90.7326780  73.2050819  23.4201902  94.0780965  60.3800665  34.5891455
  94.8190678  60.9807818  34.5095918  94.3098887  59.6378303  34.0309498
  89.2222303  65.5657032  32.8669685  89.1075818  64.6642289  33.1676784
  88.3666820  65.8120729  32.5154501  96.3014140  73.5074772  34.4657186
  95.8577995  72.7211151  34.1478090  96.9631354  73.6953923  33.8001076
  91.0601262  75.0370574  28.9917864  91.6108687  74.9087637  28.2194858
  90.2212737  75.3365463  28.6412757  98.3995378  73.7877572  32.4938587
  98.3813854  74.6086453  32.0018856  99.3215299  73.6631648  32.7188728
  94.8568433  71.3021702  33.3362095  95.3896769  70.5409990  33.1061403
  94.3282514  71.0095354  34.0786250  98.0238128  56.4081768  28.8655737
  97.6802397  57.2983409  28.7894848  98.3917090  56.2183425  28.0025322
  86.0923978  68.7315298  21.6844339  86.9299200  69.1412307  21.4678047
  86.2702246  67.7914740  21.6544533  97.9888410  66.3990379  17.3728172
  97.4735034  67.1694983  17.6116559  97.7165719  65.7255515  17.9961234
  95.5735521  61.2440080  22.4313410  94.7177118  60.8546930  22.2519049
  95.9862473  61.3232040  21.5713196  97.1034668  58.7786423  26.8304970
  96.5999464  58.7416558  26.0172775  97.3965275  59.6879166  26.8901627
  93.3477554  58.8625153  25.8371152  94.2130551  58.6667961  25.4777041
  93.4155063  58.6335504  26.7640509  97.7774713  64.2717471  19.1987953
  97.4724849  64.5863620  20.0498096  98.7305156  64.3498891  19.2415286
  96.2221145  70.4307694  20.8480907  95.6942507  69.6960454  20.5354145
  95.7208648  71.2082371  20.6020876 101.2013991  68.6256715  25.9647954
 100.5437666  69.3155976  26.0528082 102.0054391  69.0153147  26.3081940
  90.9539873  61.0927361  23.2087519  91.5283625  60.8702542  22.4760712
  91.5410855  61.1616055  23.9616120 100.0119450  66.9801087  24.0151895
 100.5251332  67.6131079  24.5173605 100.6620674  66.3802283  23.6495255
  91.2809460  63.1231822  17.2283404  90.4446772  63.4606508  17.5492679
  91.1414230  62.9880801  16.2910541  93.2562541  57.9668609  21.9362588
  92.6026953  57.6517627  21.3119203  93.2143015  57.3444350  22.6622411
  96.4900281  64.4550543  26.2610236  95.5722842  64.6765490  26.1031924
  96.9060425  64.5296853  25.4021943  97.2735329  65.8541959  21.3912916
  98.0207148  66.3663356  21.0820038  97.5426918  65.5326011  22.2517310
  95.5461979  68.3500499  18.3739870  94.6373198  68.0659532  18.4712340
  95.5757063  68.7699578  17.5143177 100.7781246  71.9607089  22.1431038
 100.3243573  71.1197999  22.1996228 100.1475213  72.5968487  22.4805818
  99.7214166  62.8899075  23.3731705  98.9836923  62.3776461  23.7041948
  99.9740939  62.4499457  22.5614982  99.2214186  73.7983586  23.0780856
  99.5137160  74.3588643  22.3593222  99.7312806  74.0912147  23.8334015
  99.8225793  55.6675327  23.9673475 100.1284670  54.8072690  23.6799390
 100.5478398  56.2592947  23.7672469  86.1150149  66.0706014  22.3555073
  85.9174549  65.4775374  21.6306139  85.5596813  65.7658224  23.0731011
  94.0946873  65.9629120  24.4749666  94.1495483  65.0102956  24.3992142
  93.2838075  66.1188559  24.9590964  92.0339233  64.5806180  22.2340045
  91.2207098  64.8800350  22.6405237  92.5298227  64.1861869  22.9514527
  94.1847811  74.5763937  24.1674309  94.1423990  74.8024783  23.2382841
  95.1010510  74.3427311  24.3160110  97.6313445  65.0448004  31.0654938
  97.9862832  65.2719477  31.9249404  98.2785576  65.3766381  30.4432194
 103.3611182  68.1666440  21.7704267 103.2229080  68.3568036  20.8425457
 103.0047400  68.9285823  22.2272319  91.5253308  62.1524535  27.8501280
  92.1652687  62.0113294  27.1524243  90.6930838  61.8659049  27.4739882
  92.3013612  71.4526966  23.9636272  93.0954210  70.9577286  23.7618847
  91.5905304  70.9244829  23.6003978  97.1208456  73.8345061  28.3148640
  97.1745478  74.4035998  29.0826356  96.2523237  74.0046946  27.9502677
  88.6096375  65.5970047  20.0396025  87.6793963  65.5354503  20.2565987
  88.7053847  65.0746000  19.2432666  88.5281924  62.1224860  22.6274266
  88.7888741  63.0370194  22.5183427  89.3499096  61.6549303  22.7770879
  90.0006849  63.5362617  29.7973091  90.6729903  63.3279980  29.1485740
  89.1736636  63.3384703  29.3578323  95.9032421  60.1624558  31.8138752
  95.2560336  60.8614508  31.7203228  96.6733437  60.5960702  32.1815000
  99.3111219  70.4273411  34.8889305  99.1596726  70.1983962  33.9719389
  99.3015899  71.3844012  34.9020650  96.0796556  68.0005323  29.8735571
  97.0088616  68.1516483  29.7004539  95.6587586  68.0889344  29.0184218
  94.8784888  72.0255988  27.6434109  94.7395973  71.6574772  28.5160047
  94.0899484  72.5403627  27.4718067  96.4290103  71.4037590  25.0322947
  96.0939935  71.3638360  25.9280597  95.9294048  70.7382306  24.5593357
  90.4034347  66.8105220  30.5575528  90.2654145  66.0785459  31.1587067
  91.3139270  66.7214121  30.2759716  93.0316647  66.5225180  30.0459208
  93.7416266  65.8818372  30.0045826  92.9885955  66.7738075  30.9685388
 101.0203426  73.4592533  32.9665787 100.9615972  72.7751753  32.2996370
 101.4222944  74.2011523  32.5146413  91.7445581  63.5090398  31.8654847
  91.2082938  63.0581136  32.5176443  91.1562290  63.6436306  31.1225311
  90.0394125  80.2754447  25.7599506  90.2790723  80.9072971  26.4378524
  89.1963321  79.9242487  26.0464865  91.1547840  62.9679049  14.4281311
  90.2777307  62.8467850  14.0643557  91.6305593  62.1765127  14.1760199
 101.0220833  71.4232117  31.1979767 100.1347612  71.0858039  31.3206165
 101.5919384  70.6915148  31.4348532  82.6749980  67.7556209  24.5222818
  83.3621020  67.4417939  23.9343833  82.5198109  68.6597573  24.2490069
  87.4784703  62.6446405  28.9507842  87.3942891  62.0372075  28.2158252
  86.6567409  63.1355424  28.9517338  94.5521987  76.0833569  28.1641010
  94.4792158  76.8888541  28.6760314  94.1099380  76.2825535  27.3389031
  94.3411766  75.3205339  21.6743831  93.5579288  75.8627020  21.7682056
  95.0404511  75.8379319  22.0738072  97.6508416  61.1299969  24.3178037
  98.1477116  60.3769931  23.9979107  96.8795398  61.1664285  23.7521246
  97.0120670  75.9820403  30.3199168  97.7248642  76.6167868  30.2475070
  96.5210699  76.0784269  29.5039170  98.7338197  69.8871656  21.8916460
  97.7994476  70.0073119  21.7221164  98.9114866  68.9844123  21.6276470
  94.2343385  63.2717352  24.0449721  93.8641173  62.7188392  24.7330627
  94.7302478  62.6675485  23.4924721 102.1210748  65.7288975  22.4266494
 102.5871201  66.5616967  22.3526797 102.5718249  65.2633957  23.1311753
  92.0632584  73.7314847  31.1404739  92.7642043  74.3651330  31.2934133
  91.5927699  74.0729578  30.3800379 100.0927411  58.0969562  26.4657396
  99.1790491  58.3273789  26.6339602 100.5220513  58.1808006  27.3171428
  99.8633870  66.2859454  28.9657290  99.2105320  66.5335362  28.3109742
 100.2414250  65.4723592  28.6319767  96.8241044  76.3219147  23.0685460
  97.0063438  75.5040803  23.5313212  97.6474030  76.5386840  22.6310350
  95.9121443  67.0279265  35.4523327  95.2362080  66.9273395  36.1225702
  96.7349077  66.8718479  35.9159324  87.6600302  73.2651202  28.0735842
  88.2453739  72.5194890  28.2063746  87.4625140  73.5755159  28.9572506
  90.5138957  76.3002449  23.0898284  89.8449332  76.7848577  22.6062324
  90.3751827  76.5471670  24.0041663  82.2517957  65.8356802  26.7940285
  82.2902056  65.3020393  27.5877403  81.7458249  65.3092008  26.1751262
  94.6544226  78.3346193  29.6880943  95.2062534  78.4977814  30.4530028
  94.9950419  78.9250631  29.0160968  89.6308719  60.6821343  30.2902827
  89.6950045  61.5436174  29.8780225  89.5675839  60.0695344  29.5575186
  89.1060991  62.7544475  33.9375862  89.7333030  62.3721552  34.5513386
  88.2488910  62.5358677  34.3031554  99.5055100  73.1607450  35.5429597
 100.0495004  73.7737409  35.0484552  98.9241945  73.7187029  36.0596610
  85.8826534  64.5620904  19.8694216  86.1779975  63.6531583  19.8161270
  84.9814570  64.5408644  19.5475219  97.7912613  76.2828168  26.6744625
  97.6663752  75.4817908  26.1655570  98.4491704  76.7774362  26.1858595
  89.4120781  62.6376901  25.8521765  88.6907367  63.2512869  25.7129238
  90.2014037  63.1734666  25.7738411  99.8547521  74.0837188  28.3024175
  98.9077857  73.9642540  28.2302502 100.2030294  73.1959686  28.3850436
  92.2147095  59.9731327  32.1262417  92.7381496  60.2193624  32.8888726
  91.9959428  60.8051362  31.7065554  87.6114376  62.2435002  19.9933542
  87.2827082  61.3632381  19.8108648  87.9653746  62.1882671  20.8809931
  96.8593955  73.8789905  24.5028527  96.7118917  72.9506612  24.6836097
  97.6847448  73.9009995  24.0185602  90.7256199  62.5307972  20.3609019
  91.0652271  63.0593893  19.6387628  91.1728319  62.8688378  21.1367586
 100.4628076  74.7018463  25.5893400 101.3874624  74.4961325  25.4517851
 100.2943380  74.4534865  26.4982741  93.4199640  60.9145022  29.8112087
  93.0796460  60.1152836  30.2132767  92.7138646  61.2146733  29.2388921
  94.0716111  57.9994335  28.2639410  94.8942181  57.5254813  28.1418301
  94.3154175  58.7784819  28.7638097  92.7124346  61.0282593  18.5602312
  93.4332708  61.4063846  18.0566029  92.0889650  61.7471470  18.6637290
  96.8555469  61.7327742  19.4960644  97.0719083  62.6152380  19.1949473
  96.3749536  61.3413956  18.7666286  91.5954690  64.6913456  26.0731389
  91.4499271  65.0053759  26.9655670  91.1179894  65.3098356  25.5202288
  93.4551073  61.6816003  26.1212279  93.4412642  60.7857097  25.7844576
  94.1723501  61.6886667  26.7550565  95.3077204  62.1153344  28.1665406
  95.0494982  63.0370414  28.1649736  94.7762244  61.7183778  28.8565870
  86.0700352  67.2318800  29.0119050  85.5253820  68.0078608  29.1439324
  86.9479702  67.5789604  28.8538172  92.8587969  60.5630384  21.3899849
  92.9803880  59.6347030  21.5890736  92.5690011  60.5769070  20.4778164
  95.7279159  58.2485294  24.5266569  95.7500856  58.3124627  23.5718548
  96.1447218  57.4089803  24.7207075  86.8566374  66.3588696  31.9049207
  86.1148110  66.5071332  32.4913837  86.5359119  66.6196962  31.0415956
  94.8010037  75.9004674  31.7029597  95.1097163  75.6553821  32.5752297
  95.5985519  76.1051313  31.2148467  94.8230649  78.0542584  23.9334974
  94.3835639  77.5618963  24.6267830  95.5738766  77.5115552  23.6927049
  87.3022988  74.2454125  23.9359602  88.1281008  73.9457897  23.5558245
  86.9517040  73.4761747  24.3849390  92.2704521  73.5980593  26.0057275
  91.6484530  72.9351298  25.7059503  92.9409388  73.6241725  25.3230923
  85.5031593  72.1640451  24.8948535  84.6663501  71.7362626  24.7132537
  85.4755238  72.3572895  25.8319326  92.3429049  62.0762381  35.5989781
  92.3917204  62.9524504  35.2167551  92.8851563  61.5339774  35.0261424
 102.8283894  72.6203504  34.8790918 102.0379438  72.6027643  34.3395418
 102.5917249  73.1591798  35.6339955 102.9481769  69.4695971  32.1923647
 102.9979774  69.3045978  33.1339170 102.8395693  68.6023230  31.8021528
  91.8318028  72.1484516  19.4815736  91.9806148  72.8319981  18.8282409
  92.6384471  72.1289607  19.9965192 100.2385532  65.4526899  33.5082954
 101.1395394  65.3133364  33.2166951 100.3133506  65.6181354  34.4481131
  94.5728337  62.8293754  32.3536140  93.7031646  63.1227320  32.0818728
  94.8087817  63.4134199  33.0743404 102.6987154  67.0125527  30.9045726
 103.1741276  67.2053173  30.0964578 101.7752720  67.0684713  30.6589110
  89.5870661  68.1749694  20.4876805  89.3416703  67.2712024  20.6857015
  89.7566576  68.1766845  19.5456283  97.2767371  59.0473370  29.8701560
  97.7949315  59.7834397  29.5448049  96.9222504  59.3537364  30.7048319
  88.8566309  63.9078052  17.9862966  88.1635553  63.9822407  17.3303002
  88.6118060  63.1438395  18.5084483  97.5279965  55.4673653  25.3902457
  97.8081719  54.7996842  26.0162883  98.3130572  55.6602749  24.8777121
 101.3988823  63.8891287  29.1374032 102.3506246  63.9889385  29.1586256
 101.2292274  63.0969556  29.6472116  99.4203203  60.9746870  29.3233433
  98.8253135  61.2551883  28.6279922  99.1352900  61.4640771  30.0950174
 101.6882117  57.6449466  24.2570428 101.4906938  57.3364554  25.1413759
 102.2981822  58.3711105  24.3868357  95.5998925  70.0311206  35.7544193
  96.5201934  70.2089805  35.9484239  95.5648508  69.0867251  35.6023892
  93.9003149  63.9043436  14.2298421  92.9934605  63.6076549  14.3061135
  94.1779130  63.6073254  13.3632707  84.8181090  65.2249799  24.6797467
  84.4983874  64.3715108  24.3871841  84.2714518  65.4398378  25.4355435
  88.5960997  67.9412240  28.3966974  88.8147007  68.8729348  28.4155008
  89.0086771  67.5820215  29.1821778  95.5165215  58.4480326  20.3842662
  94.7065943  58.1027411  20.7597908  96.2049632  58.1387869  20.9730274
  97.4455763  57.5258373  22.0066959  97.9986802  57.9453826  22.6656982
  97.6825850  56.5994121  22.0489915  93.4688862  63.5145446  37.7869723
  93.3685589  64.4639803  37.7181814  93.2510405  63.1863685  36.9145793
  92.6701934  60.7630371  14.3710400  93.5321098  61.0885270  14.6306217
  92.8552278  59.9761867  13.8583466  84.6869350  68.8452711  26.6490589
  83.9932821  68.4306664  26.1360543  85.4342341  68.8873247  26.0524008
 100.8234570  59.6358898  21.5145623 100.2433239  60.2943702  21.1323676
 100.5570503  58.8136242  21.1033041  99.2738137  59.0363955  23.7166943
  99.7737915  59.1480490  22.9081262  99.9173745  58.7325008  24.3567752
  93.3320133  66.9442585  36.6034784  92.8487214  67.7442945  36.8098673
  93.4181072  66.9550530  35.6502228  86.6006092  68.7770965  24.5256604
  86.5776780  68.8758652  23.5738487  86.9106729  69.6236116  24.8473770
  89.2593470  70.8347120  28.6403218  90.2136724  70.8031062  28.5733150
  89.0605994  70.3737743  29.4553444  89.8492852  69.4048236  31.2074016
  90.6685741  69.8992314  31.2308853  90.1229660  68.4880204  31.1791583
  99.6059448  61.7958988  20.5701971  98.7185303  62.0808639  20.3522166
 100.0213437  61.6352751  19.7229248 102.9573984  61.8205509  24.2856311
 103.7334375  62.3101962  24.5580927 102.2322119  62.2463563  24.7428180
  87.6143699  76.3766739  25.6573416  87.4798167  75.6167140  25.0911414
  87.1975761  77.1007639  25.1902205  99.5800472  67.3113524  20.7852262
  99.5235673  67.7682075  19.9459894 100.1328815  66.5504209  20.6075104
 103.3905278  63.1003256  21.6102381 103.1342212  62.6999892  22.4410589
 102.7658146  63.8147050  21.4852520  90.7712825  77.2736056  25.8691859
  90.6545209  78.2181489  25.7670549  89.9505271  76.9709618  26.2577658
  85.1027766  63.7386370  31.9066213  85.7486630  63.2285324  32.3953438
  84.8944917  64.4755051  32.4809638  97.6281159  70.8067217  37.4058354
  98.4972318  70.9807869  37.0444988  97.1487910  71.6261634  37.2834083
  93.6231377  58.0026414  17.6590109  93.6110047  58.9468254  17.8158380
  94.5154799  57.8196560  17.3649570  91.7967339  77.9264318  29.0847787
  92.6994585  77.9587928  29.4014282  91.5704709  76.9964769  29.0994123
  93.5520941  76.6795305  25.7457866  92.6016572  76.6797166  25.6322238
  93.8553427  75.9328039  25.2293900  97.4383496  54.5969191  21.9136046
  96.6715892  54.0427678  22.0592728  97.8494201  54.6691060  22.7750198
  89.4425257  60.8853987  36.0041227  90.3056719  60.5290792  36.2144552
  88.8690668  60.5467882  36.6916631 102.7226015  79.9913938  34.6345948
 102.0924676  80.6730218  34.8681344 102.6162103  79.8797019  33.6899086
  98.0170988  79.6585734  25.5611872  97.2270042  79.9143262  25.0851982
  98.5082235  80.4734071  25.6663912  96.3008691  79.9116224  27.9926863
  96.5516729  80.7963234  28.2584439  96.8368239  79.7320826  27.2201954
 102.0006758  74.2934703  36.9971199 101.6073704  73.7400902  37.6718843
 102.8172898  74.6045282  37.3877716 100.0616057  80.8948950  32.8669685
  99.9469572  79.9934207  33.1676784  99.2060575  81.1412647  32.5154501
 102.3647062  77.4816453  27.8501280 103.0046441  77.3405212  27.1524243
 101.5324593  77.1950966  27.4739882 100.8400604  78.8654535  29.7973091
 101.5123657  78.6571897  29.1485740 100.0130390  78.6676621  29.3578323
 101.2428101  82.1397138  30.5575528 101.1047899  81.4077377  31.1587067
 102.1533025  82.0506038  30.2759716 102.5839336  78.8382315  31.8654847
 102.0476693  78.3873054  32.5176443 101.9956044  78.9728224  31.1225311
  93.5143735  83.0848126  24.5222818  94.2014775  82.7709856  23.9343833
  93.3591864  83.9889491  24.2490069  98.3178457  77.9738323  28.9507842
  98.2336646  77.3663993  28.2158252  97.4961163  78.4647341  28.9517338
  93.0911711  81.1648720  26.7940285  93.1295811  80.6312310  27.5877403
  92.5852004  80.6383925  26.1751262 100.4702473  76.0113260  30.2902827
 100.5343800  76.8728091  29.8780225 100.4069594  75.3987262  29.5575186
  99.9454746  78.0836393  33.9375862 100.5726785  77.7013470  34.5513386
  99.0882665  77.8650595  34.3031554 100.2514536  77.9668819  25.8521765
  99.5301121  78.5804786  25.7129238 101.0407791  78.5026583  25.7738411
 103.0540849  75.3023245  32.1262417 103.5775251  75.5485542  32.8888726
 102.8353182  76.1343280  31.7065554  96.9094107  82.5610718  29.0119050
  96.3647575  83.3370526  29.1439324  97.7873457  82.9081522  28.8538172
  97.6960129  81.6880614  31.9049207  96.9541865  81.8363249  32.4913837
  97.3752873  81.9488879  31.0415956 103.1822803  77.4054299  35.5989781
 103.2310959  78.2816422  35.2167551 103.7245317  76.8631692  35.0261424
  95.6574844  80.5541717  24.6797467  95.3377628  79.7007025  24.3871841
  95.1108272  80.7690295  25.4355435  99.4354752  83.2704158  28.3966974
  99.6540761  84.2021266  28.4155008  99.8480525  82.9112133  29.1821778
  95.5263104  84.1744629  26.6490589  94.8326576  83.7598581  26.1360543
  96.2736095  84.2165165  26.0524008 100.0987224  86.1639037  28.6403218
 101.0530478  86.1322980  28.5733150  99.8999748  85.7029661  29.4553444
 100.6886607  84.7340153  31.2074016 101.5079496  85.2284232  31.2308853
 100.9623414  83.8172122  31.1791583  95.9421521  79.0678287  31.9066213
  96.5880384  78.5577241  32.3953438  95.7338672  79.8046969  32.4809638
 100.2819012  76.2145904  36.0041227 101.1450473  75.8582709  36.2144552
  99.7084423  75.8759799  36.6916631  59.9415368   2.0949687  18.3775849
  59.6505234   2.9995317  18.2622515  60.5772352   2.1366214  19.0919919
  62.4416384   2.2369468  17.1923170  62.5060817   2.6989875  18.0281342
  61.7327308   1.6066833  17.3205480  63.7832878   4.5261142  21.1902492
  63.3396732   3.7397521  20.8723397  64.4450092   4.7140292  20.5246383
  58.5419999   6.0556944  15.7163171  59.0927424   5.9274007  14.9440165
  57.7031475   6.3551833  15.3658064  65.8814116   4.8063942  19.2183893
  65.8632592   5.6272823  18.7264163  66.8034036   4.6818017  19.4434035
  62.3387170   2.3208071  20.0607402  62.8715507   1.5596360  19.8306710
  61.8101252   2.0281723  20.8031556  64.6027194   4.8531431  15.0393946
  64.6564216   5.4222367  15.8071662  63.7341975   5.0233316  14.6747983
  62.3603625   3.0442357  14.3679416  62.2214711   2.6761142  15.2405354
  61.5718222   3.5589997  14.1963374  68.5022164   4.4778903  19.6911094
  68.4434710   3.7938123  19.0241677  68.9041682   5.2197893  19.2391720
  57.5212863  11.2940816  12.4844812  57.7609461  11.9259341  13.1623831
  56.6782059  10.9428856  12.7710172  62.0340724   7.1019939  14.8886316
  61.9610896   7.9074910  15.4005621  61.5918118   7.3011905  14.0634338
  64.4939408   7.0006773  17.0444475  65.2067380   7.6354238  16.9720377
  64.0029437   7.0970639  16.2284477  59.5451322   4.7501216  17.8650046
  60.2460781   5.3837699  18.0179440  59.0746437   5.0915948  17.1045685
  64.3059781   7.3405517   9.7930767  64.4882176   6.5227173  10.2558519
  65.1292767   7.5573209   9.3555657  62.1362963   9.3532562  16.4126249
  62.6881271   9.5164184  17.1775335  62.4769157   9.9437000  15.7406274
  66.9873838   4.1793820  22.2674904  67.5313742   4.7923778  21.7729859
  66.4060683   4.7373398  22.7841917  65.2731351   7.3014538  13.3989931
  65.1482490   6.5004278  12.8900877  65.9310442   7.7960731  12.9103901
  67.3366259   5.1023558  15.0269482  66.3896595   4.9828909  14.9547808
  67.6849032   4.2146056  15.1095743  67.9446814   5.7204833  12.3138707
  68.8693362   5.5147694  12.1763158  67.7762118   5.4721234  13.2228048
  62.2828775   6.9191044  18.4274904  62.5915901   6.6740191  19.2997603
  63.0804257   7.1237682  17.9393774  62.3049387   9.0728954  10.6580280
  61.8654377   8.5805332  11.3513137  63.0557504   8.5301921  10.4172355
  57.3311590   0.4234605  17.9319323  58.1504479   0.9178684  17.9554160
  57.6048398  -0.4933426  17.9036890  58.2531562   8.2922426  12.5937165
  58.1363947   9.2367858  12.4915856  57.4324009   7.9895987  12.9822965
  59.2786077   8.9450688  15.8093094  60.1813323   8.9774298  16.1259589
  59.0523447   8.0151139  15.8239430  61.0339679   7.6981674  12.4703172
  60.0835310   7.6983536  12.3567545  61.3372165   6.9514409  11.9539207
  76.7692372  13.5342213  13.5348935  77.4070782  13.4148960  12.8312275
  76.6513215  14.4823057  13.5936887  73.5782078  13.4869641  13.4710460
  73.2400590  13.3710705  12.5830994  74.4471847  13.0860806  13.4511466
  69.4368894  15.3405117   9.4607350  68.8733759  15.2495054   8.6923638
  69.3221289  14.5205022   9.9409843  74.0601861  14.6404492  19.4296665
  74.0490502  14.2457291  18.5577169  74.2222501  13.9070565  20.0230437
  66.9833326  16.8356309  12.2991571  67.7754618  16.4947133  11.8837870
  67.2229976  16.9451284  13.2193724  68.9424080  16.0965222   5.1708950
  69.7154956  15.5494209   5.0321826  69.2949479  16.9609471   5.3823411
  70.7809122  17.4241604  18.3775849  70.4898988  18.3287235  18.2622515
  71.4166107  17.4658132  19.0919919  71.7065329  14.8018453  14.9677209
  72.3028902  14.5774475  14.2534172  71.7640301  14.0603198  15.5702657
  73.3418187  13.6196141   8.7098464  72.9776395  13.0926762   9.4211385
  74.1985303  13.2294610   8.5364949  75.7399008  17.1103020  15.3725643
  75.4399731  18.0128059  15.2641450  75.3950067  16.8435203  16.2246796
  69.1911489  13.5616817  11.4062347  68.2661986  13.4293031  11.6140039
  69.4395902  14.3411036  11.9032290  66.5520300  13.2050090  12.2406136
  66.6812681  13.4584569  13.1545548  65.8717751  13.7977798  11.9210791
  70.7219787  23.8747340   8.3396610  70.6443817  24.8255165   8.4185091
  70.1181431  23.5293213   8.9971537  73.2137017  11.0475206  20.9957977
  72.4370351  11.6069126  20.9860842  73.8527580  11.5331989  21.5172847
  71.4683389  13.8560659  20.5575944  72.2098074  14.3945703  20.2810768
  70.7620375  14.4826948  20.7147496  76.9438729  15.9989799  19.1548106
  77.3522085  15.5572210  18.4102738  76.2215991  15.4242427  19.4082299
  73.2969799  10.9362406  16.5281663  74.1430994  11.3601820  16.6716312
  73.2368437  10.2796030  17.2220226  77.2667544  16.5590990  12.9100395
  76.6376406  16.7236704  12.2076463  76.8793206  16.9732600  13.6811359
  76.4469244   8.5966775  18.1862836  76.2030176   9.3508835  17.6497112
  76.7229175   8.9752122  19.0210083  78.4007707  15.1405387  16.8640102
  78.6124602  15.7837147  16.1874483  78.3537455  14.3067703  16.3962032
  76.0033936   7.7523208  13.7676674  75.1418415   8.0504461  14.0593412
  76.0296371   7.9693606  12.8357707  72.8195506  16.2965398  10.1750480
  73.2833851  16.5753101   9.3855102  72.5552304  15.3948843   9.9923570
  69.7119587  15.8436880  13.1130243  70.2820944  16.2724148  12.4747728
  70.3027699  15.5619464  13.8114429  71.7564392  12.4188550   6.9840045
  72.4588435  12.8709594   7.4513971  71.4245020  11.7772369   7.6119938
  70.2044753  11.0100307  21.3591254  69.5743414  11.6916588  21.5926651
  70.0980841  10.8983389  20.4144393  65.4989726  10.6772103  12.2857178
  64.7088780  10.9329632  11.8097289  65.9900973  11.4920441  12.3909219
  79.5153535  18.0177342  15.0362459  80.3370979  17.6157530  14.7545141
  79.5115938  17.9145576  15.9878575  67.4504471  11.0416682   9.2440655
  66.6535634  11.1535377   9.7624151  67.2230063  11.3803335   8.3781546
  73.2810139  17.5661386  17.1923170  73.3454571  18.0281793  18.0281342
  72.5721063  16.9358751  17.3205480  63.7827429  10.9302594  14.7172169
  64.0335467  11.8149604  14.9829745  64.3186977  10.7507195  13.9447261
  72.9958156  19.2329493   7.0602150  72.8603831  20.0781029   7.4886998
  73.5367969  19.4348771   6.2968084  69.4825496   5.3121073  23.7216505
  69.0892441   4.7587272  24.3964150  70.2991636   5.6231651  24.1123023
  66.4487554  16.7504931   7.6330075  66.9612074  17.5448181   7.7835640
  67.1010267  16.0531222   7.5663677  68.2582438  19.8670687   9.7152828
  68.4349067  20.7888652   9.5273812  69.0539272  19.5529107  10.1447208
  72.3993457   6.7278952  21.3136762  73.1403170   7.3286105  21.2341224
  72.6311380   5.9856590  20.7554804  67.5434795  11.9135319  19.5914992
  67.4288310  11.0120577  19.8922091  66.6879313  12.1599016  19.2399808
  74.6226633  19.8553060  21.1902492  74.1790487  19.0689438  20.8723397
  75.2843846  20.0432210  20.5246383  69.3813754  21.3848861  15.7163171
  69.9321179  21.2565925  14.9440165  68.5425230  21.6843750  15.3658064
  76.7207871  20.1355860  19.2183893  76.7026346  20.9564741  18.7264163
  77.6427791  20.0109935  19.4434035  73.1780925  17.6499989  20.0607402
  73.7109262  16.8888277  19.8306710  72.6495006  17.3573641  20.8031556
  64.4136470  15.0793585   8.4089646  65.2511692  15.4890594   8.1923353
  64.5914738  14.1393028   8.3789840  71.6690046   5.2103440  12.5616459
  72.5343043   5.0146249  12.2022348  71.7367555   4.9813792  13.4885815
  74.5433638  16.7785982   7.5726214  74.0154999  16.0438741   7.2599451
  74.0421140  17.5560658   7.3266182  79.5226484  14.9735002  12.6893260
  78.8650158  15.6634263  12.7773389  80.3266883  15.3631434  13.0327247
  69.2752365   7.4405648   9.9332825  69.8496117   7.2180829   9.2006018
  69.8623348   7.5094342  10.6861427  74.8112773  10.8028830  12.9855542
  73.8935335  11.0243777  12.8277231  75.2272917  10.8775141  12.1267250
  77.5426678  20.1461873   9.8026163  77.8349652  20.7066930   9.0838528
  78.0525298  20.4390434  10.5579322  64.4362642  12.4184301   9.0800379
  64.2387041  11.8253661   8.3551446  63.8809306  12.1136511   9.7976318
  72.4159365  12.3107407  11.1994972  72.4707975  11.3581244  11.1237449
  71.6050567  12.4666846  11.6836271  70.3551725  10.9284467   8.9585351
  69.5419591  11.2278638   9.3650543  70.8510719  10.5340156   9.6759833
  72.5060303  20.9242224  10.8919616  72.4636482  21.1503070   9.9628148
  73.4223002  20.6905599  11.0405417  75.9525937  11.3926291  17.7900245
  76.3075325  11.6197765  18.6494711  76.5998068  11.7244668  17.1677500
  69.8465800   8.5002823  14.5746586  70.4865179   8.3591582  13.8769549
  69.0143330   8.2137336  14.1985188  70.6226104  17.8005253  10.6881579
  71.4166702  17.3055573  10.4864154  69.9117796  17.2723116  10.3249284
  75.4420948  20.1823348  15.0393946  75.4957971  20.7514285  15.8071662
  74.5735730  20.3525234  14.6747983  66.8494416   8.4703148   9.3519573
  67.1101234   9.3848481   9.2428733  67.6711589   8.0027590   9.5016186
  68.3219342   9.8840905  16.5218398  68.9942395   9.6758267  15.8731046
  67.4949128   9.6862991  16.0823630  82.5708603  16.6244955  16.0393731
  82.7644493  17.5290766  16.2853006  82.4709221  16.1652374  16.8732316
  74.2244914   6.5102846  18.5384058  73.5772829   7.2092795  18.4448535
  74.9945929   6.9438990  18.9060307  77.6323712  16.7751698  21.6134612
  77.4809218  16.5462249  20.6964695  77.6228391  17.7322299  21.6265957
  74.4009048  14.3483611  16.5980878  75.3301108  14.4994770  16.4249845
  73.9800078  14.4367631  15.7429525  73.1997380  18.3734275  14.3679416
  73.0608466  18.0053059  15.2405354  72.4111976  18.8881914  14.1963374
  73.7945532  23.4743371   5.7104952  73.9697288  23.0031415   6.5250575
  73.1078320  24.1009138   5.9386213  74.7502595  17.7515878  11.7568254
  74.4152428  17.7116648  12.6525903  74.2506541  17.0860594  11.2838664
  68.7246839  13.1583508  17.2820835  68.5866637  12.4263746  17.8832374
  69.6351762  13.0692408  17.0005022  71.3529140  12.8703467  16.7704514
  72.0628758  12.2296659  16.7291133  71.3098448  13.1216362  17.6930695
  79.3415918  19.8070820  19.6911094  79.2828464  19.1230040  19.0241677
  79.7435437  20.5489810  19.2391720  70.0658074   9.8568685  18.5900154
  69.5295431   9.4059423  19.2421750  69.4774782   9.9914594  17.8470618
  68.3606617  26.6232734  12.4844812  68.6003215  27.2551258  13.1623831
  67.5175814  26.2720774  12.7710172  79.3433326  17.7710404  17.9225073
  78.4560104  17.4336326  18.0451472  79.9131877  17.0393435  18.1593839
  60.9962473  14.1034496  11.2468125  61.6833513  13.7896226  10.6589140
  60.8410601  15.0075861  10.9735376  65.7997195   8.9924693  15.6753148
  65.7155384   8.3850362  14.9403558  64.9779901   9.4833711  15.6762645
  72.8734479  22.4311857  14.8886316  72.8004650  23.2366828  15.4005621
  72.4311872  22.6303822  14.0634338  72.6624259  21.6683627   8.3989138
  71.8791780  22.2105307   8.4927362  73.3617004  22.1857606   8.7983379
  75.3333162  22.3298691  17.0444475  76.0461135  22.9646155  16.9720377
  74.8423191  22.4262557  16.2284477  72.5555877   9.6195639  10.7695028
  72.1853665   9.0666679  11.4575934  73.0514970   9.0153773  10.2170028
  70.3845076  20.0793134  17.8650046  71.0854536  20.7129617  18.0179440
  69.9140191  20.4207866  17.1045685  78.1846362  12.6337742  15.6902596
  77.5317812  12.8813649  15.0355049  78.5626742  11.8201880  15.3565074
  75.1453536  22.6697435   9.7930767  75.3275930  21.8519091  10.2558519
  75.9686522  22.8865127   9.3555657  75.4795701  21.5965620   7.0545815
  76.0083468  21.0858074   6.4415977  75.7423921  21.2808150   7.9191348
  74.2333935  13.3757553  22.1768633  73.5574572  13.2751682  22.8471009
  75.0561569  13.2196766  22.6404631  65.9812794  19.6129489  14.7981149
  66.5666231  18.8673177  14.9309053  65.7837633  19.9233446  15.6817812
  68.8351449  22.6480737   9.8143591  68.1661825  23.1326864   9.3307631
  68.6964319  22.8949957  10.7286969  60.5730449  12.1835089  13.5185592
  60.6114548  11.6498680  14.3122710  60.0670742  11.6570295  12.8996569
  72.9756718  24.6824480  16.4126249  73.5275026  24.8456102  17.1775335
  73.3162911  25.2728918  15.7406274  67.9521211   7.0299630  17.0148134
  68.0162538   7.8914461  16.6025532  67.8888331   6.4173632  16.2820493
  67.4273484   9.1022762  20.6621168  68.0545522   8.7199840  21.2758693
  66.5701402   8.8836964  21.0276861  77.8267592  19.5085738  22.2674904
  78.3707496  20.1215696  21.7729859  77.2454437  20.0665316  22.7841917
  76.1125105  22.6306456  13.3989931  75.9876245  21.8296195  12.8900877
  76.7704196  23.1252649  12.9103901  67.7333273   8.9855188  12.5767072
  67.0119859   9.5991156  12.4374545  68.5226529   9.5212953  12.4983718
  78.1760014  20.4315476  15.0269482  77.2290349  20.3120827  14.9547808
  78.5242787  19.5437974  15.1095743  70.5359587   6.3209615  18.8507723
  71.0593989   6.5671911  19.6134033  70.3171920   7.1529649  18.4310861
  75.1806447  20.2268192  11.2273834  75.0331409  19.2984899  11.4081404
  76.0059940  20.2488283  10.7430909  78.7840569  21.0496751  12.3138707
  79.7087116  20.8439612  12.1763158  78.6155872  20.8013152  13.2228048
  71.7412132   7.2623310  16.5357394  71.4008952   6.4631123  16.9378074
  71.0351138   7.5625021  15.9634227  69.9167183  11.0391743  12.7976696
  69.7711763  11.3532046  13.6900977  69.4392386  11.6576643  12.2447594
  71.7763565   8.0294291  12.8457585  71.7625134   7.1335384  12.5089883
  72.4935994   8.0364954  13.4795871  73.6289696   8.4631631  14.8910713
  73.3707474   9.3848702  14.8895043  73.0974737   8.0662065  15.5811177
  64.3912845  13.5797087  15.7364357  63.8466313  14.3556895  15.8684631
  65.2692195  13.9267892  15.5783478  65.1778867  12.7066983  18.6294514
  64.4360603  12.8549619  19.2159144  64.8571611  12.9675249  17.7661263
  73.1222529  22.2482962  18.4274904  73.4309656  22.0032108  19.2997603
  73.9198011  22.4529600  17.9393774  73.1443141  24.4020871  10.6580280
  72.7048132  23.9097250  11.3513137  73.8951258  23.8593839  10.4172355
  65.6235480  20.5932412  10.6604908  66.4493500  20.2936184  10.2803552
  65.2729532  19.8240035  11.1094697  70.5917013  19.9458880  12.7302582
  69.9697023  19.2829585  12.4304810  71.2621880  19.9720012  12.0476230
  63.8244085  18.5118739  11.6193842  62.9875994  18.0840913  11.4377843
  63.7967731  18.7051182  12.5564633  70.6641541   8.4240668  22.3235088
  70.7129696   9.3002791  21.9412858  71.2064055   7.8818061  21.7506731
  81.1496387  18.9681792  21.6036225  80.3591930  18.9505930  21.0640724
  80.9129741  19.5070085  22.3585262  81.2694262  15.8174258  18.9168954
  81.3192267  15.6524265  19.8584476  81.1608185  14.9501517  18.5266834
  70.1530520  18.4962804   6.2061042  70.3018641  19.1798268   5.5527715
  70.9596964  18.4767894   6.7210498  78.5598024  11.8005186  20.2328260
  79.4607887  11.6611651  19.9412258  78.6345999  11.9659641  21.1726438
  72.8940829   9.1772041  19.0781447  72.0244139   9.4705607  18.8064035
  73.1300310   9.7612486  19.7988710  82.7712458  18.2371200  19.1610975
  82.4797267  18.6001180  19.9974436  82.1584590  17.5238208  18.9824307
  81.0199647  13.3603814  17.6291033  81.4953768  13.5531460  16.8209884
  80.0965212  13.4163000  17.3834417  67.9083153  14.5227981   7.2122111
  67.6629195  13.6190311   7.4102321  68.0779068  14.5245132   6.2701589
  73.6525926  20.9910934   3.6772790  73.0799893  21.6101121   3.2243262
  74.2258720  21.5410296   4.2112712  79.7201316  10.2369574  15.8619339
  80.6718739  10.3367672  15.8831563  79.5504766   9.4447843  16.3717423
  77.7415695   7.3225157  16.0478740  77.1465627   7.6030170  15.3525228
  77.4565392   7.8119058  16.8195481  73.9211417  16.3789493  22.4789499
  74.8414426  16.5568092  22.6729546  73.8861000  15.4345538  22.3269199
  63.1393582  11.5728087  11.4042774  62.8196366  10.7193395  11.1117148
  62.5927010  11.7876665  12.1600741  66.9173489  14.2890528  15.1212281
  67.1359499  15.2207636  15.1400314  67.3299263  13.9298502  15.9067084
  71.7901355   9.8623733  24.5115029  71.6898082  10.8118090  24.4427121
  71.5722897   9.5341972  23.6391100  63.0081842  15.1930998  13.3735896
  62.3145313  14.7784951  12.8605850  63.7554833  15.2351535  12.7769314
  71.6532625  13.2920872  23.3280091  71.1699706  14.0921232  23.5343980
  71.7393564  13.3028817  22.3747535  64.9218584  15.1249252  11.2501910
  64.8989273  15.2236939  10.2983794  65.2319221  15.9714403  11.5719077
  67.5805962  17.1825407  15.3648525  68.5349216  17.1509349  15.2978456
  67.3818486  16.7216031  16.1798751  68.1705344  15.7526523  17.9319323
  68.9898233  16.2470602  17.9554160  68.4442152  14.8358491  17.9036890
  65.9356191  22.7245026  12.3818723  65.8010659  21.9645427  11.8156721
  65.5188253  23.4485926  11.9147512  69.0925317  23.6214344  12.5937165
  68.9757701  24.5659776  12.4915856  68.2717763  23.3187905  12.9822965
  63.4240259  10.0864657  18.6311520  64.0699122   9.5763611  19.1198745
  63.2157410  10.8233339  19.2054945  75.9493651  17.1545504  24.1303660
  76.8184810  17.3286157  23.7690295  75.4700402  17.9739921  24.0079390
  70.1179831  24.2742605  15.8093094  71.0207078  24.3066216  16.1259589
  69.8917201  23.3443056  15.8239430  71.8733433  23.0273592  12.4703172
  70.9229064  23.0275454  12.3567545  72.1765919  22.2806327  11.9539207
  67.7637750   7.2332274  22.7286534  68.6269211   6.8769079  22.9389858
  67.1903160   6.8946169  23.4161938  87.6086127  28.8634130  13.5348935
  88.2464537  28.7440878  12.8312275  87.4906969  29.8114974  13.5936887
  84.4175833  28.8161558  13.4710460  84.0794344  28.7002623  12.5830994
  85.2865601  28.4152724  13.4511466  80.2762649  30.6697035   9.4607350
  79.7127514  30.5786972   8.6923638  80.1615044  29.8496939   9.9409843
  84.8995616  29.9696410  19.4296665  84.8884257  29.5749208  18.5577169
  85.0616255  29.2362483  20.0230437  77.8227080  32.1648226  12.2991571
  78.6148372  31.8239051  11.8837870  78.0623731  32.2743201  13.2193724
  79.7817834  31.4257140   5.1708950  80.5548710  30.8786127   5.0321826
  80.1343233  32.2901389   5.3823411  81.6202877  32.7533522  18.3775849
  81.3292743  33.6579153  18.2622515  82.2559861  32.7950050  19.0919919
  82.5459084  30.1310370  14.9677209  83.1422656  29.9066393  14.2534172
  82.6034055  29.3895116  15.5702657  84.1811942  28.9488059   8.7098464
  83.8170149  28.4218680   9.4211385  85.0379058  28.5586528   8.5364949
  86.5792762  32.4394937  15.3725643  86.2793485  33.3419976  15.2641450
  86.2343822  32.1727121  16.2246796  80.0305244  28.8908734  11.4062347
  79.1055740  28.7584948  11.6140039  80.2789657  29.6702954  11.9032290
  77.3914055  28.5342008  12.2406136  77.5206436  28.7876487  13.1545548
  76.7111506  29.1269716  11.9210791  81.5613542  39.2039258   8.3396610
  81.4837572  40.1547083   8.4185091  80.9575185  38.8585130   8.9971537
  84.0530772  26.3767123  20.9957977  83.2764106  26.9361043  20.9860842
  84.6921335  26.8623906  21.5172847  82.3077144  29.1852577  20.5575944
  83.0491828  29.7237621  20.2810768  81.6014129  29.8118865  20.7147496
  87.7832484  31.3281717  19.1548106  88.1915840  30.8864128  18.4102738
  87.0609745  30.7534345  19.4082299  84.1363554  26.2654324  16.5281663
  84.9824749  26.6893737  16.6716312  84.0762191  25.6087948  17.2220226
  88.1061298  31.8882908  12.9100395  87.4770161  32.0528622  12.2076463
  87.7186960  32.3024517  13.6811359  87.2862999  23.9258692  18.1862836
  87.0423931  24.6800753  17.6497112  87.5622929  24.3044040  19.0210083
  89.2401462  30.4697305  16.8640102  89.4518357  31.1129064  16.1874483
  89.1931210  29.6359621  16.3962032  86.8427691  23.0815125  13.7676674
  85.9812170  23.3796379  14.0593412  86.8690125  23.2985524  12.8357707
  83.6589260  31.6257316  10.1750480  84.1227606  31.9045019   9.3855102
  83.3946058  30.7240760   9.9923570  80.5513341  31.1728797  13.1130243
  81.1214698  31.6016066  12.4747728  81.1421453  30.8911382  13.8114429
  82.5958146  27.7480468   6.9840045  83.2982190  28.2001512   7.4513971
  82.2638775  27.1064287   7.6119938  81.0438508  26.3392225  21.3591254
  80.4137168  27.0208506  21.5926651  80.9374596  26.2275306  20.4144393
  76.3383480  26.0064021  12.2857178  75.5482534  26.2621549  11.8097289
  76.8294727  26.8212359  12.3909219  90.3547290  33.3469260  15.0362459
  91.1764733  32.9449447  14.7545141  90.3509693  33.2437494  15.9878575
  78.2898226  26.3708600   9.2440655  77.4929389  26.4827294   9.7624151
  78.0623818  26.7095252   8.3781546  84.1203893  32.8953303  17.1923170
  84.1848326  33.3573711  18.0281342  83.4114817  32.2650668  17.3205480
  74.6221183  26.2594511  14.7172169  74.8729222  27.1441521  14.9829745
  75.1580732  26.0799113  13.9447261  83.8351911  34.5621411   7.0602150
  83.6997586  35.4072947   7.4886998  84.3761723  34.7640688   6.2968084
  80.3219250  20.6412991  23.7216505  79.9286196  20.0879189  24.3964150
  81.1385391  20.9523569  24.1123023  77.2881308  32.0796849   7.6330075
  77.8005829  32.8740099   7.7835640  77.9404021  31.3823139   7.5663677
  79.0976193  35.1962605   9.7152828  79.2742821  36.1180570   9.5273812
  79.8933026  34.8821024  10.1447208  83.2387211  22.0570870  21.3136762
  83.9796925  22.6578023  21.2341224  83.4705134  21.3148508  20.7554804
  78.3828549  27.2427237  19.5914992  78.2682065  26.3412494  19.8922091
  77.5273067  27.4890934  19.2399808  85.4620387  35.1844977  21.1902492
  85.0184241  34.3981356  20.8723397  86.1237601  35.3724128  20.5246383
  87.5601625  35.4647777  19.2183893  87.5420101  36.2856658  18.7264163
  88.4821545  35.3401852  19.4434035  84.0174679  32.9791907  20.0607402
  84.5503016  32.2180195  19.8306710  83.4888760  32.6865559  20.8031556
  75.2530225  30.4085503   8.4089646  76.0905447  30.8182511   8.1923353
  75.4308493  29.4684945   8.3789840  82.5083801  20.5395358  12.5616459
  83.3736797  20.3438166  12.2022348  82.5761310  20.3105709  13.4885815
  85.3827392  32.1077899   7.5726214  84.8548754  31.3730659   7.2599451
  84.8814895  32.8852576   7.3266182  90.3620238  30.3026920  12.6893260
  89.7043913  30.9926181  12.7773389  91.1660637  30.6923352  13.0327247
  80.1146120  22.7697565   9.9332825  80.6889872  22.5472747   9.2006018
  80.7017102  22.8386260  10.6861427  85.6506528  26.1320748  12.9855542
  84.7329089  26.3535695  12.8277231  86.0666671  26.2067058  12.1267250
  88.3820432  35.4753791   9.8026163  88.6743407  36.0358848   9.0838528
  88.8919053  35.7682352  10.5579322  75.2756396  27.7476218   9.0800379
  75.0780796  27.1545579   8.3551446  74.7203060  27.4428429   9.7976318
  83.2553120  27.6399325  11.1994972  83.3101730  26.6873161  11.1237449
  82.4444322  27.7958764  11.6836271  81.1945480  26.2576385   8.9585351
  80.3813345  26.5570555   9.3650543  81.6904474  25.8632073   9.6759833
  83.3454058  36.2534142  10.8919616  83.3030236  36.4794988   9.9628148
  84.2616756  36.0197516  11.0405417  86.7919691  26.7218209  17.7900245
  87.1469079  26.9489682  18.6494711  87.4391823  27.0536586  17.1677500
  80.6859554  23.8294740  14.5746586  81.3258934  23.6883499  13.8769549
  79.8537085  23.5429254  14.1985188  81.4619858  33.1297171  10.6881579
  82.2560457  32.6347491  10.4864154  80.7511551  32.6015034  10.3249284
  86.2814703  35.5115266  15.0393946  86.3351725  36.0806202  15.8071662
  85.4129484  35.6817151  14.6747983  77.7702622  27.2740252   6.7641331
  76.8400210  27.2124708   6.9811293  77.8660094  26.7516205   5.9677973
  77.6888171  23.7995065   9.3519573  77.9494988  24.7140398   9.2428733
  78.5105343  23.3319508   9.5016186  79.1613096  25.2132822  16.5218398
  79.8336150  25.0050184  15.8731046  78.3342883  25.0154908  16.0823630
  93.4102357  31.9536873  16.0393731  93.6038248  32.8582683  16.2853006
  93.3102976  31.4944292  16.8732316  85.0638668  21.8394763  18.5384058
  84.4166583  22.5384713  18.4448535  85.8339684  22.2730907  18.9060307
  88.4717466  32.1043615  21.6134612  88.3202973  31.8754167  20.6964695
  88.4622146  33.0614217  21.6265957  85.2402803  29.6775528  16.5980878
  86.1694863  29.8286688  16.4249845  84.8193833  29.7659549  15.7429525
  84.0391134  33.7026193  14.3679416  83.9002220  33.3344977  15.2405354
  83.2505731  34.2173832  14.1963374  84.6339286  38.8035289   5.7104952
  84.8091042  38.3323332   6.5250575  83.9472074  39.4301055   5.9386213
  85.5896349  33.0807795  11.7568254  85.2546182  33.0408565  12.6525903
  85.0900295  32.4152511  11.2838664  79.5640593  28.4875425  17.2820835
  79.4260391  27.7555664  17.8832374  80.4745517  28.3984325  17.0005022
  82.1922894  28.1995385  16.7704514  82.9022513  27.5588577  16.7291133
  82.1492202  28.4508279  17.6930695  90.1809673  35.1362738  19.6911094
  90.1222219  34.4521958  19.0241677  90.5829191  35.8781728  19.2391720
  80.9051828  25.1860603  18.5900154  80.3689185  24.7351341  19.2421750
  80.3168537  25.3206511  17.8470618  79.2000372  41.9524652  12.4844812
  79.4396970  42.5843176  13.1623831  78.3569568  41.6012692  12.7710172
  90.1827080  33.1002322  17.9225073  89.2953859  32.7628244  18.0451472
  90.7525631  32.3685353  18.1593839  71.8356227  29.4326414  11.2468125
  72.5227267  29.1188144  10.6589140  71.6804356  30.3367778  10.9735376
  76.6390949  24.3216610  15.6753148  76.5549138  23.7142280  14.9403558
  75.8173656  24.8125629  15.6762645  83.7128233  37.7603774  14.8886316
  83.6398405  38.5658746  15.4005621  83.2705627  37.9595740  14.0634338
  83.5018013  36.9975544   8.3989138  82.7185535  37.5397224   8.4927362
  84.2010758  37.5149524   8.7983379  86.1726917  37.6590608  17.0444475
  86.8854889  38.2938073  16.9720377  85.6816946  37.7554474  16.2284477
  83.3949632  24.9487557  10.7695028  83.0247419  24.3958597  11.4575934
  83.8908724  24.3445690  10.2170028  81.2238831  35.4085052  17.8650046
  81.9248290  36.0421535  18.0179440  80.7533945  35.7499783  17.1045685
  89.0240116  27.9629659  15.6902596  88.3711567  28.2105567  15.0355049
  89.4020496  27.1493797  15.3565074  85.9847290  37.9989352   9.7930767
  86.1669685  37.1811008  10.2558519  86.8080276  38.2157045   9.3555657
  86.3189456  36.9257538   7.0545815  86.8477222  36.4149992   6.4415977
  86.5817675  36.6100068   7.9191348  85.0727689  28.7049470  22.1768633
  84.3968327  28.6043600  22.8471009  85.8955323  28.5488684  22.6404631
  79.6745204  37.9772654   9.8143591  79.0055579  38.4618782   9.3307631
  79.5358073  38.2241875  10.7286969  71.4124203  27.5127007  13.5185592
  71.4508303  26.9790598  14.3122710  70.9064496  26.9862213  12.8996569
  83.8150472  40.0116398  16.4126249  84.3668780  40.1748019  17.1775335
  84.1556666  40.6020836  15.7406274  78.7914966  22.3591548  17.0148134
  78.8556292  23.2206378  16.6025532  78.7282086  21.7465549  16.2820493
  78.2667238  24.4314680  20.6621168  78.8939277  24.0491757  21.2758693
  77.4095157  24.2128882  21.0276861  88.6661347  34.8377655  22.2674904
  89.2101251  35.4507614  21.7729859  88.0848192  35.3957234  22.7841917
  75.0432781  26.2391109   6.5939523  75.3386222  25.3301788   6.5406577
  74.1420817  26.2178849   6.2720525  86.9518860  37.9598373  13.3989931
  86.8269999  37.1588113  12.8900877  87.6097951  38.4544567  12.9103901
  78.5727028  24.3147106  12.5767072  77.8513614  24.9283073  12.4374545
  79.3620284  24.8504871  12.4983718  89.0153768  35.7607393  15.0269482
  88.0684104  35.6412745  14.9547808  89.3636541  34.8729891  15.1095743
  81.3753341  21.6501532  18.8507723  81.8987743  21.8963829  19.6134033
  81.1565675  22.4821567  18.4310861  76.7720622  23.9205207   6.7178848
  76.4433329  23.0402586   6.5353954  77.1259993  23.8652876   7.6055237
  86.0200201  35.5560110  11.2273834  85.8725164  34.6276817  11.4081404
  86.8453695  35.5780200  10.7430909  89.6234323  36.3788668  12.3138707
  90.5480871  36.1731530  12.1763158  89.4549627  36.1305069  13.2228048
  82.5805886  22.5915227  16.5357394  82.2402707  21.7923040  16.9378074
  81.8744893  22.8916938  15.9634227  83.2322358  19.6764540  14.9884717
  84.0548428  19.2025018  14.8663607  83.4760422  20.4555024  15.4883403
  80.7560937  26.3683660  12.7976696  80.6105518  26.6823963  13.6900977
  80.2786141  26.9868561  12.2447594  82.6157320  23.3586208  12.8457585
  82.6018889  22.4627302  12.5089883  83.3329748  23.3656872  13.4795871
  84.4683451  23.7923549  14.8910713  84.2101228  24.7140619  14.8895043
  83.9368491  23.3953983  15.5811177  75.2306599  28.9089005  15.7364357
  74.6860067  29.6848813  15.8684631  76.1085949  29.2559809  15.5783478
  76.0172621  28.0358901  18.6294514  75.2754357  28.1841536  19.2159144
  75.6965365  28.2967167  17.7661263  83.9616284  37.5774879  18.4274904
  84.2703410  37.3324026  19.2997603  84.7591766  37.7821518  17.9393774
  83.9836896  39.7312789  10.6580280  83.5441886  39.2389168  11.3513137
  84.7345013  39.1885757  10.4172355  76.4629235  35.9224330  10.6604908
  77.2887255  35.6228102  10.2803552  76.1123287  35.1531952  11.1094697
  81.4310768  35.2750798  12.7302582  80.8090777  34.6121503  12.4304810
  82.1015635  35.3011930  12.0476230  74.6637840  33.8410656  11.6193842
  73.8269748  33.4132831  11.4377843  74.6361485  34.0343100  12.5564633
  81.5035295  23.7532586  22.3235088  81.5523451  24.6294709  21.9412858
  82.0457810  23.2109979  21.7506731  91.9890141  34.2973709  21.6036225
  91.1985685  34.2797848  21.0640724  91.7523496  34.8362003  22.3585262
  92.1088016  31.1466176  18.9168954  92.1586021  30.9816183  19.8584476
  92.0001939  30.2793435  18.5266834  80.9924275  33.8254721   6.2061042
  81.1412395  34.5090186   5.5527715  81.7990718  33.8059811   6.7210498
  89.3991779  27.1297104  20.2328260  90.3001641  26.9903569  19.9412258
  89.4739753  27.2951559  21.1726438  83.7334584  24.5063958  19.0781447
  82.8637893  24.7997525  18.8064035  83.9694064  25.0904403  19.7988710
  93.6106213  33.5663117  19.1610975  93.3191021  33.9293098  19.9974436
  92.9978344  32.8530125  18.9824307  91.8593401  28.6895732  17.6291033
  92.3347523  28.8823378  16.8209884  90.9358967  28.7454918  17.3834417
  78.7476908  29.8519899   7.2122111  78.5022950  28.9482229   7.4102321
  78.9172822  29.8537049   6.2701589  86.4373618  20.7243575  16.5946867
  86.9555562  21.4604602  16.2693356  86.0828750  21.0307569  17.4293626
  78.0172555  25.5848257   4.7108273  77.3241800  25.6592612   4.0548309
  77.7724307  24.8208600   5.2329790  84.4919680  36.3202852   3.6772790
  83.9193647  36.9393039   3.2243262  85.0652474  36.8702214   4.2112712
  90.5595070  25.5661492  15.8619339  91.5112493  25.6659590  15.8831563
  90.3898521  24.7739760  16.3717423  88.5809450  22.6517075  16.0478740
  87.9859382  22.9322088  15.3525228  88.2959146  23.1410976  16.8195481
  84.7605171  31.7081411  22.4789499  85.6808181  31.8860010  22.6729546
  84.7254754  30.7637456  22.3269199  73.9787336  26.9020004  11.4042774
  73.6590121  26.0485313  11.1117148  73.4320765  27.1168583  12.1600741
  77.7567244  29.6182445  15.1212281  77.9753254  30.5499553  15.1400314
  78.1693018  29.2590420  15.9067084  82.6295109  25.1915651  24.5115029
  82.5291836  26.1410008  24.4427121  82.4116651  24.8633890  23.6391100
  73.8475596  30.5222916  13.3735896  73.1539068  30.1076869  12.8605850
  74.5948587  30.5643452  12.7769314  82.4926379  28.6212790  23.3280091
  82.0093461  29.4213150  23.5343980  82.5787318  28.6320735  22.3747535
  75.7612339  30.4541170  11.2501910  75.7383027  30.5528857  10.2983794
  76.0712975  31.3006320  11.5719077  79.0099099  31.0818441  17.9319323
  79.8291988  31.5762519  17.9554160  79.2835907  30.1650409  17.9036890
  76.7749946  38.0536944  12.3818723  76.6404413  37.2937345  11.8156721
  76.3582008  38.7777844  11.9147512  79.9319071  38.9506261  12.5937165
  79.8151456  39.8951694  12.4915856  79.1111518  38.6479823  12.9822965
  74.2634013  25.4156575  18.6311520  74.9092877  24.9055529  19.1198745
  74.0551164  26.1525256  19.2054945  86.7887405  32.4837422  24.1303660
  87.6578565  32.6578074  23.7690295  86.3094157  33.3031839  24.0079390
  80.9573586  39.6034523  15.8093094  81.8600832  39.6358133  16.1259589
  80.7310956  38.6734974  15.8239430  82.7127188  38.3565510  12.4703172
  81.7622819  38.3567371  12.3567545  83.0159674  37.6098244  11.9539207
  78.6031504  22.5624192  22.7286534  79.4662966  22.2060997  22.9389858
  78.0296915  22.2238086  23.4161938  98.4479881  44.1926048  13.5348935
  99.0858291  44.0732795  12.8312275  98.3300724  45.1406892  13.5936887
  95.2569587  44.1453476  13.4710460  94.9188099  44.0294541  12.5830994
  96.1259356  43.7444641  13.4511466  91.1156403  45.9988953   9.4607350
  90.5521268  45.9078889   8.6923638  91.0008798  45.1788857   9.9409843
  95.7389370  45.2988328  19.4296665  95.7278011  44.9041126  18.5577169
  95.9010010  44.5654400  20.0230437  88.6620835  47.4940144  12.2991571
  89.4542127  47.1530969  11.8837870  88.9017485  47.6035119  13.2193724
  90.6211589  46.7549057   5.1708950  91.3942465  46.2078044   5.0321826
  90.9736988  47.6193307   5.3823411  92.4596631  48.0825440  18.3775849
  92.1686497  48.9871070  18.2622515  93.0953616  48.1241967  19.0919919
  93.3852838  45.4602288  14.9677209  93.9816411  45.2358311  14.2534172
  93.4427810  44.7187034  15.5702657  95.0205696  44.2779977   8.7098464
  94.6563904  43.7510598   9.4211385  95.8772812  43.8878446   8.5364949
  97.4186517  47.7686855  15.3725643  97.1187240  48.6711894  15.2641450
  97.0737576  47.5019038  16.2246796  90.8698998  44.2200652  11.4062347
  89.9449495  44.0876866  11.6140039  91.1183411  44.9994871  11.9032290
  88.2307809  43.8633926  12.2406136  88.3600190  44.1168404  13.1545548
  87.5505260  44.4561634  11.9210791  92.4007296  54.5331176   8.3396610
  92.3231326  55.4839001   8.4185091  91.7968940  54.1877048   8.9971537
  94.8924526  41.7059041  20.9957977  94.1157860  42.2652961  20.9860842
  95.5315089  42.1915824  21.5172847  93.1470898  44.5144494  20.5575944
  93.8885583  45.0529538  20.2810768  92.4407884  45.1410783  20.7147496
  98.6226238  46.6573635  19.1548106  99.0309594  46.2156045  18.4102738
  97.9003500  46.0826262  19.4082299  94.9757308  41.5946242  16.5281663
  95.8218503  42.0185655  16.6716312  94.9155946  40.9379866  17.2220226
  98.9455053  47.2174825  12.9100395  98.3163915  47.3820540  12.2076463
  98.5580715  47.6316435  13.6811359  98.1256753  39.2550610  18.1862836
  97.8817685  40.0092670  17.6497112  98.4016684  39.6335957  19.0210083
 100.0795216  45.7989222  16.8640102 100.2912111  46.4420982  16.1874483
 100.0324964  44.9651539  16.3962032  97.6821445  38.4107043  13.7676674
  96.8205924  38.7088296  14.0593412  97.7083880  38.6277442  12.8357707
  94.4983015  46.9549233  10.1750480  94.9621360  47.2336936   9.3855102
  94.2339813  46.0532678   9.9923570  91.3907096  46.5020715  13.1130243
  91.9608453  46.9307983  12.4747728  91.9815208  46.2203300  13.8114429
  93.4351901  43.0772386   6.9840045  94.1375944  43.5293430   7.4513971
  93.1032529  42.4356205   7.6119938  91.8832262  41.6684142  21.3591254
  91.2530923  42.3500423  21.5926651  91.7768350  41.5567224  20.4144393
  87.1777235  41.3355938  12.2857178  86.3876289  41.5913467  11.8097289
  87.6688482  42.1504276  12.3909219 101.1941044  48.6761178  15.0362459
 102.0158488  48.2741365  14.7545141 101.1903447  48.5729412  15.9878575
  89.1291980  41.7000518   9.2440655  88.3323143  41.8119212   9.7624151
  88.9017572  42.0387170   8.3781546  94.9597648  48.2245221  17.1923170
  95.0242080  48.6865628  18.0281342  94.2508571  47.5942586  17.3205480
  85.4614938  41.5886429  14.7172169  85.7122976  42.4733439  14.9829745
  85.9974486  41.4091030  13.9447261  94.6745665  49.8913328   7.0602150
  94.5391340  50.7364864   7.4886998  95.2155478  50.0932606   6.2968084
  91.1613005  35.9704908  23.7216505  90.7679950  35.4171107  24.3964150
  91.9779145  36.2815487  24.1123023  88.1275063  47.4088766   7.6330075
  88.6399583  48.2032017   7.7835640  88.7797775  46.7115057   7.5663677
  89.9369947  50.5254523   9.7152828  90.1136576  51.4472487   9.5273812
  90.7326781  50.2112942  10.1447208  94.0780966  37.3862787  21.3136762
  94.8190679  37.9869941  21.2341224  94.3098889  36.6440425  20.7554804
  89.2222304  42.5719155  19.5914992  89.1075819  41.6704412  19.8922091
  88.3666822  42.8182851  19.2399808  96.3014142  50.5136895  21.1902492
  95.8577996  49.7273274  20.8723397  96.9631355  50.7016045  20.5246383
  91.0601263  52.0432697  15.7163171  91.6108688  51.9149760  14.9440165
  90.2212739  52.3427586  15.3658064  98.3995380  50.7939695  19.2183893
  98.3813855  51.6148576  18.7264163  99.3215300  50.6693770  19.4434035
  94.8568434  48.3083824  20.0607402  95.3896771  47.5472113  19.8306710
  94.3282515  48.0157476  20.8031556  86.0923979  45.7377421   8.4089646
  86.9299201  46.1474429   8.1923353  86.2702247  44.7976863   8.3789840
  93.3477555  35.8687275  12.5616459  94.2130552  35.6730084  12.2022348
  93.4155064  35.6397627  13.4885815  96.2221147  47.4369817   7.5726214
  95.6942508  46.7022576   7.2599451  95.7208649  48.2144493   7.3266182
 101.2013993  45.6318837  12.6893260 100.5437667  46.3218099  12.7773389
 102.0054392  46.0215269  13.0327247  90.9539874  38.0989483   9.9332825
  91.5283626  37.8764665   9.2006018  91.5410857  38.1678178  10.6861427
  96.4900282  41.4612666  12.9855542  95.5722844  41.6827613  12.8277231
  96.9060426  41.5358976  12.1267250  99.2214187  50.8045708   9.8026163
  99.5137161  51.3650765   9.0838528  99.7312807  51.0974269  10.5579322
  86.1150151  43.0768136   9.0800379  85.9174550  42.4837497   8.3551446
  85.5596815  42.7720346   9.7976318  94.0946874  42.9691243  11.1994972
  94.1495484  42.0165079  11.1237449  93.2838076  43.1250682  11.6836271
  92.0339234  41.5868302   8.9585351  91.2207100  41.8862473   9.3650543
  92.5298228  41.1923991   9.6759833  94.1847812  51.5826059  10.8919616
  94.1423991  51.8086906   9.9628148  95.1010511  51.3489434  11.0405417
  97.6313446  42.0510127  17.7900245  97.9862834  42.2781600  18.6494711
  98.2785577  42.3828504  17.1677500  91.5253309  39.1586658  14.5746586
  92.1652688  39.0175417  13.8769549  90.6930839  38.8721171  14.1985188
  92.3013613  48.4589088  10.6881579  93.0954211  47.9639408  10.4864154
  91.5905305  47.9306951  10.3249284  97.1208457  50.8407184  15.0393946
  97.1745480  51.4098120  15.8071662  96.2523239  51.0109069  14.6747983
  88.6096376  42.6032170   6.7641331  87.6793964  42.5416626   6.9811293
  88.7053848  42.0808123   5.9677973  88.5281925  39.1286983   9.3519573
  88.7888743  40.0432316   9.2428733  89.3499098  38.6611425   9.5016186
  90.0006851  40.5424740  16.5218398  90.6729904  40.3342102  15.8731046
  89.1736637  40.3446826  16.0823630  95.9032423  37.1686681  18.5384058
  95.2560338  37.8676631  18.4448535  96.6733438  37.6022825  18.9060307
  99.3111221  47.4335533  21.6134612  99.1596727  47.2046085  20.6964695
  99.3015900  48.3906135  21.6265957  96.0796557  45.0067446  16.5980878
  97.0088617  45.1578605  16.4249845  95.6587587  45.0951467  15.7429525
  94.8784889  49.0318110  14.3679416  94.7395975  48.6636895  15.2405354
  94.0899485  49.5465750  14.1963374  96.4290104  48.4099713  11.7568254
  96.0939937  48.3700483  12.6525903  95.9294050  47.7444429  11.2838664
  90.4034348  43.8167343  17.2820835  90.2654146  43.0847582  17.8832374
  91.3139271  43.7276243  17.0005022  93.0316649  43.5287302  16.7704514
  93.7416267  42.8880495  16.7291133  92.9885957  43.7800197  17.6930695
 101.0203427  50.4654656  19.6911094 100.9615973  49.7813876  19.0241677
 101.4222946  51.2073646  19.2391720  91.7445583  40.5152520  18.5900154
  91.2082940  40.0643259  19.2421750  91.1562291  40.6498429  17.8470618
  90.0394126  57.2816570  12.4844812  90.2790724  57.9135094  13.1623831
  89.1963323  56.9304610  12.7710172 101.0220835  48.4294240  17.9225073
 100.1347613  48.0920161  18.0451472 101.5919386  47.6977271  18.1593839
  82.6749982  44.7618331  11.2468125  83.3621022  44.4480061  10.6589140
  82.5198110  45.6659696  10.9735376  87.4784704  39.6508528  15.6753148
  87.3942893  39.0434197  14.9403558  86.6567410  40.1417546  15.6762645
  94.5521988  53.0895692  14.8886316  94.4792159  53.8950663  15.4005621
  94.1099381  53.2887658  14.0634338  94.3411768  52.3267462   8.3989138
  93.5579289  52.8689142   8.4927362  95.0404513  52.8441442   8.7983379
  97.0120671  52.9882526  17.0444475  97.7248644  53.6229991  16.9720377
  96.5210700  53.0846392  16.2284477  94.2343386  40.2779474  10.7695028
  93.8641174  39.7250515  11.4575934  94.7302479  39.6737608  10.2170028
  92.0632585  50.7376969  17.8650046  92.7642044  51.3713452  18.0179440
  91.5927700  51.0791701  17.1045685  99.8633871  43.2921577  15.6902596
  99.2105321  43.5397484  15.0355049 100.2414251  42.4785715  15.3565074
  96.8241045  53.3281270   9.7930767  97.0063439  52.5102926  10.2558519
  97.6474031  53.5448962   9.3555657  95.9121444  44.0341388  22.1768633
  95.2362081  43.9335517  22.8471009  96.7349078  43.8780602  22.6404631
  87.6600303  50.2713324  14.7981149  88.2453740  49.5257012  14.9309053
  87.4625142  50.5817281  15.6817812  90.5138958  53.3064572   9.8143591
  89.8449334  53.7910700   9.3307631  90.3751828  53.5533792  10.7286969
  82.2517958  42.8418925  13.5185592  82.2902057  42.3082515  14.3122710
  81.7458251  42.3154130  12.8996569  94.6544227  55.3408315  16.4126249
  95.2062535  55.5039937  17.1775335  94.9950420  55.9312753  15.7406274
  89.6308720  37.6883465  17.0148134  89.6950047  38.5498296  16.6025532
  89.5675840  37.0757467  16.2820493  89.1060993  39.7606598  20.6621168
  89.7333031  39.3783675  21.2758693  88.2488911  39.5420800  21.0276861
  99.5055101  50.1669573  22.2674904 100.0495005  50.7799531  21.7729859
  98.9241946  50.7249151  22.7841917  85.8826535  41.5683027   6.5939523
  86.1779976  40.6593705   6.5406577  84.9814571  41.5470766   6.2720525
  97.7912614  53.2890291  13.3989931  97.6663754  52.4880031  12.8900877
  98.4491705  53.7836484  12.9103901  89.4120782  39.6439023  12.5767072
  88.6907368  40.2574991  12.4374545  90.2014038  40.1796788  12.4983718
  99.8547523  51.0899311  15.0269482  98.9077858  50.9704662  14.9547808
 100.2030296  50.2021809  15.1095743  92.2147096  36.9793450  18.8507723
  92.7381498  37.2255746  19.6134033  91.9959429  37.8113485  18.4310861
  87.6114377  39.2497125   6.7178848  87.2827083  38.3694503   6.5353954
  87.9653748  39.1944793   7.6055237  96.8593956  50.8852027  11.2273834
  96.7118918  49.9568735  11.4081404  97.6847449  50.9072118  10.7430909
 100.4628078  51.7080586  12.3138707 101.3874625  51.5023447  12.1763158
 100.2943381  51.4596987  13.2228048  93.4199641  37.9207145  16.5357394
  93.0796461  37.1214958  16.9378074  92.7138647  38.2208856  15.9634227
  94.0716113  35.0056457  14.9884717  94.8942182  34.5316936  14.8663607
  94.3154176  35.7846941  15.4883403  91.5954692  41.6975578  12.7976696
  91.4499272  42.0115881  13.6900977  91.1179895  42.3160478  12.2447594
  93.4551074  38.6878126  12.8457585  93.4412643  37.7919219  12.5089883
  94.1723503  38.6948790  13.4795871  95.3077205  39.1215466  14.8910713
  95.0494983  40.0432537  14.8895043  94.7762245  38.7245901  15.5811177
  86.0700354  44.2380922  15.7364357  85.5253822  45.0140730  15.8684631
  86.9479704  44.5851727  15.5783478  86.8566376  43.3650819  18.6294514
  86.1148112  43.5133454  19.2159144  86.5359120  43.6259084  17.7661263
  94.8010038  52.9066797  18.4274904  95.1097165  52.6615944  19.2997603
  95.5985520  53.1113435  17.9393774  94.8230650  55.0604707  10.6580280
  94.3835641  54.5681085  11.3513137  95.5738767  54.5177674  10.4172355
  87.3022989  51.2516247  10.6604908  88.1281009  50.9520019  10.2803552
  86.9517041  50.4823870  11.1094697  92.2704522  50.6042716  12.7302582
  91.6484532  49.9413421  12.4304810  92.9409389  50.6303848  12.0476230
  85.5031594  49.1702574  11.6193842  84.6663503  48.7424748  11.4377843
  85.4755240  49.3635017  12.5564633  92.3429050  39.0824504  22.3235088
  92.3917205  39.9586627  21.9412858  92.8851564  38.5401897  21.7506731
 102.8283896  49.6265627  21.6036225 102.0379439  49.6089766  21.0640724
 102.5917250  50.1653921  22.3585262 102.9481771  46.4758093  18.9168954
 102.9979776  46.3108101  19.8584476 102.8395694  45.6085352  18.5266834
  91.8318029  49.1546639   6.2061042  91.9806150  49.8382103   5.5527715
  92.6384473  49.1351729   6.7210498 100.2385533  42.4589021  20.2328260
 101.1395396  42.3195486  19.9412258 100.3133508  42.6243476  21.1726438
  94.5728338  39.8355876  19.0781447  93.7031648  40.1289442  18.8064035
  94.8087819  40.4196321  19.7988710 102.6987156  44.0187649  17.6291033
 103.1741277  44.2115296  16.8209884 101.7752721  44.0746835  17.3834417
  89.5870662  45.1811817   7.2122111  89.3416704  44.2774147   7.4102321
  89.7566577  45.1828967   6.2701589  97.2767372  36.0535493  16.5946867
  97.7949316  36.7896520  16.2693356  96.9222505  36.3599486  17.4293626
  88.8566310  40.9140174   4.7108273  88.1635555  40.9884529   4.0548309
  88.6118062  40.1500518   5.2329790 101.3988825  40.8953410  15.8619339
 102.3506248  40.9951507  15.8831563 101.2292275  40.1031678  16.3717423
  99.4203204  37.9808993  16.0478740  98.8253136  38.2614006  15.3525228
  99.1352901  38.4702894  16.8195481  95.5998926  47.0373328  22.4789499
  96.5201935  47.2151927  22.6729546  95.5648509  46.0929374  22.3269199
  84.8181091  42.2311922  11.4042774  84.4983875  41.3777230  11.1117148
  84.2714519  42.4460500  12.1600741  88.5960998  44.9474363  15.1212281
  88.8147008  45.8791471  15.1400314  89.0086772  44.5882337  15.9067084
  93.4688864  40.5207569  24.5115029  93.3685591  41.4701926  24.4427121
  93.2510406  40.1925808  23.6391100  84.6869351  45.8514834  13.3735896
  83.9932822  45.4368786  12.8605850  85.4342342  45.8935370  12.7769314
  93.3320134  43.9504708  23.3280091  92.8487215  44.7505068  23.5343980
  93.4181073  43.9612653  22.3747535  86.6006093  45.7833087  11.2501910
  86.5776781  45.8820775  10.2983794  86.9106730  46.6298238  11.5719077
  89.2593471  47.8409242  15.3648525  90.2136725  47.8093185  15.2978456
  89.0605995  47.3799866  16.1798751  89.8492853  46.4110358  17.9319323
  90.6685742  46.9054437  17.9554160  90.1229661  45.4942327  17.9036890
  87.6143700  53.3828862  12.3818723  87.4798168  52.6229263  11.8156721
  87.1975762  54.1069762  11.9147512  90.7712826  54.2798179  12.5937165
  90.6545210  55.2243611  12.4915856  89.9505272  53.9771740  12.9822965
  85.1027768  40.7448492  18.6311520  85.7486631  40.2347446  19.1198745
  84.8944919  41.4817174  19.2054945  97.6281160  47.8129340  24.1303660
  98.4972319  47.9869992  23.7690295  97.1487911  48.6323757  24.0079390
  91.7967340  54.9326441  15.8093094  92.6994587  54.9650051  16.1259589
  91.5704710  54.0026892  15.8239430  93.5520942  53.6857427  12.4703172
  92.6016573  53.6859289  12.3567545  93.8553428  52.9390162  11.9539207
  89.4425259  37.8916109  22.7286534  90.3056720  37.5352914  22.9389858
  88.8690669  37.5530004  23.4161938 102.7226017  56.9976060  21.3591254
 102.0924677  57.6792341  21.5926651 102.6162105  56.8859142  20.4144393
  98.0170989  56.6647856  12.2857178  97.2270043  56.9205385  11.8097289
  98.5082236  57.4796194  12.3909219  96.3008692  56.9178347  14.7172169
  96.5516731  57.8025357  14.9829745  96.8368240  56.7382948  13.9447261
 102.0006759  51.2996826  23.7216505 101.6073705  50.7463025  24.3964150
 102.8172900  51.6107404  24.1123023 100.0616058  57.9011072  19.5914992
  99.9469574  56.9996330  19.8922091  99.2060576  58.1474769  19.2399808
 102.3647063  54.4878576  14.5746586 103.0046443  54.3467335  13.8769549
 101.5324594  54.2013089  14.1985188 100.8400605  55.8716658  16.5218398
 101.5123659  55.6634020  15.8731046 100.0130392  55.6738744  16.0823630
 101.2428102  59.1459261  17.2820835 101.1047900  58.4139500  17.8832374
 102.1533026  59.0568161  17.0005022 102.5839337  55.8444438  18.5900154
 102.0476694  55.3935176  19.2421750 101.9956046  55.9790347  17.8470618
  93.5143736  60.0910249  11.2468125  94.2014776  59.7771979  10.6589140
  93.3591865  60.9951614  10.9735376  98.3178458  54.9800446  15.6753148
  98.2336647  54.3726115  14.9403558  97.4961165  55.4709464  15.6762645
  93.0911712  58.1710842  13.5185592  93.1295812  57.6374433  14.3122710
  92.5852005  57.6446048  12.8996569 100.4702475  53.0175383  17.0148134
 100.5343801  53.8790214  16.6025532 100.4069595  52.4049385  16.2820493
  99.9454747  55.0898515  20.6621168 100.5726786  54.7075593  21.2758693
  99.0882666  54.8712717  21.0276861 100.2514537  54.9730941  12.5767072
  99.5301123  55.5866909  12.4374545 101.0407793  55.5088706  12.4983718
 103.0540850  52.3085368  18.8507723 103.5775252  52.5547664  19.6134033
 102.8353184  53.1405402  18.4310861  96.9094108  59.5672840  15.7364357
  96.3647576  60.3432648  15.8684631  97.7873458  59.9143645  15.5783478
  97.6960130  58.6942736  18.6294514  96.9541866  58.8425372  19.2159144
  97.3752874  58.9551002  17.7661263 103.1822804  54.4116421  22.3235088
 103.2310960  55.2878544  21.9412858 103.7245319  53.8693814  21.7506731
  95.6574845  57.5603840  11.4042774  95.3377630  56.7069148  11.1117148
  95.1108274  57.7752418  12.1600741  99.4354753  60.2766281  15.1212281
  99.6540763  61.2083389  15.1400314  99.8480527  59.9174255  15.9067084
  95.5263105  61.1806751  13.3735896  94.8326577  60.7660704  12.8605850
  96.2736096  61.2227288  12.7769314 100.0987226  63.1701160  15.3648525
 101.0530479  63.1385102  15.2978456  99.8999749  62.7091784  16.1798751
 100.6886608  61.7402276  17.9319323 101.5079497  62.2346355  17.9554160
 100.9623416  60.8234244  17.9036890  95.9421522  56.0740410  18.6311520
  96.5880386  55.5639364  19.1198745  95.7338673  56.8109092  19.2054945
 100.2819013  53.2208027  22.7286534 101.1450475  52.8644832  22.9389858
  99.7084424  52.8821922  23.4161938   1.3015901  52.8421499  80.4941139
   2.0319290  52.5806788  81.0548842   0.6922847  52.1050221  80.5343207
   0.8936084  67.1863929  79.9122399   1.5314494  67.0670676  79.2085739
   0.7756927  68.1344773  79.9710351   5.8485780  64.8490616  77.8908585
   6.5810952  64.2789833  78.1246415   5.0925136  64.4612216  78.3315091
   3.3711200  58.5612190  82.3503194   3.0394525  59.4307601  82.1264409
   2.7756814  58.2448474  83.0297224   3.2639864  63.2807276  79.4296544
   2.3556741  63.2122685  79.1355305   3.2127459  63.7579221  80.2578369
   5.1301510  61.4823715  81.2074418   4.4875890  61.7756248  80.5614212
   4.6256439  61.3676635  82.0127614   2.7841674  65.2286888  71.8960277
   3.6959530  65.4614275  71.7207974   2.2751321  65.8123932  71.3335356
   1.3911256  70.2112706  79.2873858   0.7620118  70.3758420  78.5849926
   1.0036918  70.6254316  80.0584822   5.2700488  71.1467144  76.6418222
   4.5851526  71.5266046  76.0915255   5.3544337  71.7562471  77.3750170
   2.5251420  68.7927103  83.2413566   2.7368315  69.4358863  82.5647947
   2.4781168  67.9589420  82.7735496   3.6397247  71.6699059  81.4135923
   4.4614691  71.2679246  81.1318605   3.6359650  71.5667293  82.3652039
  11.7303241  68.0137807  77.7620895  10.9766949  67.4445205  77.6064899
  11.8650782  67.9800472  78.7091529   5.4078889  69.1522737  72.4100116
   4.6308332  68.8133897  71.9655278   6.0870370  69.1575360  71.7355081
   3.6470196  68.6256718  79.0666724   2.9893870  69.3155980  79.1546853
   4.4510595  69.0153150  79.4100710   2.4575655  66.9801091  77.1170666
   2.9707536  67.6131083  77.6192375   3.1076879  66.3802287  76.7514026
   3.2237451  71.9607092  75.2449808   2.7699778  71.1198002  75.3014999
   2.5931418  72.5968491  75.5824588   2.1670370  62.8899078  76.4750476
   1.4293127  62.3776465  76.8060718   2.4197144  62.4499460  75.6633753
   1.6670390  73.7983589  76.1799626   1.9593365  74.3588646  75.4611992
   2.1769011  74.0912150  76.9352786   2.2681998  55.6675330  77.0692245
   2.5740875  54.8072694  76.7818160   2.9934603  56.2592951  76.8691239
   5.8067386  68.1666444  74.8723038   5.6685285  68.3568040  73.9444227
   5.4503605  68.9285826  75.3291089   5.8336766  70.2342971  79.8834309
   6.2673272  70.1418260  80.7317363   6.5468346  70.2100471  79.2454325
   6.6952315  70.2766671  82.4167195   6.8888205  71.1812482  82.6626470
   6.5952933  69.8174090  83.2505780   1.8105499  68.7493628  68.4078777
   1.1934670  68.0240456  68.3111830   1.3421987  69.5102989  68.0645851
   3.4677038  71.4232121  84.2998537   2.5803817  71.0858042  84.4224936
   4.0375589  70.6915152  84.5367302   7.9494378  66.8340338  79.0615099
   7.9384255  67.7165053  78.6909032   7.0811758  66.4811889  78.8669636
   4.5666953  65.7288979  75.5285265   5.0327405  66.5616970  75.4545567
   5.0174454  65.2633960  76.2330523   2.6343184  72.0732800  72.5271417
   2.9103028  71.9589395  73.4365291   1.7647683  71.6750285  72.4883590
   2.5383616  58.0969566  79.5676166   1.6246696  58.3273793  79.7358373
   2.9676717  58.1808010  80.4190198   2.3090074  66.2859458  82.0676060
   1.6561525  66.5335365  81.4128513   2.6870454  65.4723596  81.7338537
   2.3003726  74.0837192  81.4042945   1.3534061  73.9642543  81.3321272
   2.6486499  73.1959690  81.4869207   2.9084281  74.7018467  78.6912170
   3.8330828  74.4961328  78.5536621   2.7399584  74.4534868  79.6001512
   2.6979597  75.2204134  74.0474262   2.8716475  74.6550557  73.2948114
   3.1908488  76.0205029  73.8653752   8.5518988  67.9840557  75.6664561
   8.9950134  67.2347883  75.2683685   7.6745499  67.9750694  75.2838293
   3.6854770  74.5370899  71.1471160   4.3805674  75.1577591  71.3658475
   4.0277920  73.6866250  71.4223538   5.5846193  71.9870604  72.6758491
   6.1097517  72.3257877  71.9507811   5.4968545  71.0517620  72.4921625
   5.3937974  69.4695974  85.2942417   5.4435979  69.3045982  86.2357940
   5.2851897  68.6023233  84.9040298   2.6841736  65.4526902  86.6101724
   3.5851599  65.3133367  86.3185722   2.7589711  65.6181357  87.5499901
   6.8956171  71.8892916  85.5384439   6.6040979  72.2522896  86.3747900
   6.2828302  71.1759924  85.3597771   8.0951853  69.4545796  78.0587009
   8.9298744  69.8935600  78.2224569   8.2310982  68.9784449  77.2395255
   5.1443359  67.0125530  84.0064497   5.6197481  67.2053177  83.1983348
   4.2208924  67.0684716  83.7607880   3.8445028  63.8891291  82.2392802
   4.7962451  63.9889388  82.2605026   3.6748478  63.0969559  82.7490887
   1.8659407  60.9746874  82.4252203   1.2709340  61.2551886  81.7298692
   1.5809104  61.4640775  83.1968944   0.9966898  74.9269801  71.1854836
   1.9297571  74.8615362  71.3887711   0.9090111  75.7626067  70.7269369
   3.6254915  74.2435671  68.1458783   3.5468546  73.9095535  69.0394541
   4.4464581  74.7357439  68.1450256   6.3233106  67.1097410  81.3535102
   6.2909426  66.1713411  81.5394786   6.9333729  67.1881447  80.6200927
   6.4727594  63.9008454  81.3993385   5.9566643  63.1166910  81.2123314
   7.3567543  63.5727170  81.5639905   4.1338321  57.6449469  77.3589198
   3.9363142  57.3364557  78.2432530   4.7438027  58.3711108  77.4887128
  12.1409656  68.1713417  80.4941139  12.8713044  67.9098705  81.0548842
  11.5316601  67.4342139  80.5343207  10.2224953  66.3121280  81.0915590
   9.4958116  66.1777245  80.4832082   9.8072240  66.6198108  81.8972308
   3.2690775  59.6358901  74.6164394   2.6889444  60.2943705  74.2342446
   3.0026708  58.8136246  74.2051811   1.7194341  59.0363959  76.8185714
   2.2194120  59.1480494  76.0100033   2.3629949  58.7325012  77.4586522
   2.0515653  61.7958992  73.6720742   1.1641508  62.0808642  73.4540937
   2.4669642  61.6352755  72.8248019   5.4030189  61.8205513  77.3875081
   6.1790579  62.3101965  77.6599698   4.6778323  62.2463567  77.8446951
   7.8402748  62.5333132  78.4449022   8.4347238  62.2928868  77.7342330
   7.9129331  61.8140262  79.0722558   2.0256677  67.3113528  73.8871032
   1.9691878  67.7682079  73.0478664   2.5785019  66.5504212  73.7093875
   5.8361483  63.1003259  74.7121151   5.5798417  62.6999895  75.5429359
   5.2114351  63.8147053  74.5871291  10.1473820  65.8399333  77.2192443
   9.5873378  65.9092522  77.9924005   9.5417324  65.6640317  76.4991939
   3.1045564  71.9986196  69.8167222   3.9391168  71.5667394  69.6344697
   2.9429907  71.8268209  70.7444116   2.7591456  68.5018309  71.1823561
   2.7040260  68.3362580  70.2412005   2.1337511  69.2094342  71.3385751
  11.7329839  82.5155847  79.9122399  12.3708249  82.3962594  79.2085739
  11.6150682  83.4636691  79.9710351   8.5419545  82.4683275  79.8483923
   8.2038057  82.3524339  78.9604458   9.4109313  82.0674440  79.8284929
   4.4006361  84.3218751  75.8380814   3.8371226  84.2308688  75.0697102
   4.2858756  83.5018656  76.3183307   9.9805920  87.9889719  71.1495279
   9.3293899  88.5743799  70.7629293  10.7750282  88.5195914  71.2090317
   3.9061547  85.0778856  71.5482413   4.6792423  84.5307843  71.4095289
   4.2586946  85.9423105  71.7596875   6.2427825  81.2371522  69.1800863
   6.4953345  80.7153043  68.4184326   5.3052384  81.0737668  69.2827547
  11.2871107  80.2407300  76.9875607  12.0734197  79.8226724  76.6366024
  11.5509812  81.1453393  77.1557255  11.4581185  85.6780151  71.6864263
  10.8227018  85.7514777  72.3985168  11.1278591  86.2673750  71.0083343
  16.6879534  80.1782534  77.8908585  17.4204706  79.6081751  78.1246415
  15.9318890  79.7904134  78.3315091   5.9624113  83.1399628  71.3825238
   5.8460371  82.4644531  72.0506323   6.0726373  82.6532002  70.5657391
   8.3055654  82.6009775  75.0871928   7.9413861  82.0740396  75.7984849
   9.1622770  82.2108244  74.9138413  14.2104955  73.8904108  82.3503194
  13.8788280  74.7599519  82.1264409  13.6150568  73.5740392  83.0297224
   7.9461141  77.6299675  70.0833276   8.1135544  78.4979911  70.4503747
   7.7558310  77.7926957  69.1594565  10.7036474  86.0916654  81.7499106
  10.4037197  86.9941693  81.6414914  10.3587534  85.8248837  82.6020259
   4.1548956  82.5430451  77.7835811   3.2299452  82.4106665  77.9913503
   4.4033369  83.3224670  78.2805753  14.1033618  78.6099194  79.4296544
  13.1950495  78.5414602  79.1355305  14.0521214  79.0871139  80.2578369
   7.9250362  80.0857332  71.0679943   7.8049987  80.5314383  71.9065423
   7.2302950  80.4342650  70.5093481  15.9695265  76.8115632  81.2074418
  15.3269645  77.1048166  80.5614212  15.4650193  76.6968553  82.0127614
  13.6235428  80.5578806  71.8960277  14.5353284  80.7906192  71.7207974
  13.1145075  81.1415850  71.3335356   8.2607266  79.9176040  82.9055126
   9.1068461  80.3415454  83.0489775   8.2005904  79.2609664  83.5993690
  12.2305011  85.5404624  79.2873858  11.6013873  85.7050338  78.5849926
  11.8430673  85.9546234  80.0584822  16.1094242  86.4759062  76.6418222
  15.4245281  86.8557963  76.0915255  16.1938092  87.0854389  77.3750170
  11.4106711  77.5780409  84.5636300  11.1667643  78.3322469  84.0270576
  11.6866642  77.9565756  85.3983547  13.3645174  84.1219021  83.2413566
  13.5762069  84.7650781  82.5647947  13.3174922  83.2881337  82.7735496
  10.9671403  76.7336842  80.1450138  10.1055882  77.0318095  80.4366875
  10.9933838  76.9507240  79.2131170   7.7832972  85.2779032  76.5523944
   8.2471318  85.5566735  75.7628566   7.5189770  84.3762477  76.3697034
   6.7201858  81.4002184  73.3613509   7.4225902  81.8523228  73.8287435
   6.3882487  80.7586003  73.9893402  14.4791002  86.9990976  81.4135923
  15.3008446  86.5971164  81.1318605  14.4753405  86.8959210  82.3652039
   2.4141938  80.0230316  75.6214119   1.6173101  80.1349011  76.1397615
   2.1867530  80.3616969  74.7555009  22.5696995  83.3429725  77.7620895
  21.8160703  82.7737123  77.6064899  22.7044536  83.3092389  78.7091529
   7.9595623  88.2143127  73.4375614   7.8241298  89.0594663  73.8660462
   8.5005436  88.4162405  72.6741548   1.4125020  85.7318565  74.0103539
   1.9249541  86.5261815  74.1609104   2.0647733  85.0344856  73.9437140
  11.3088087  71.7373689  81.9674507  10.9652356  72.6275331  81.8913618
  11.6767049  71.5475347  81.1044092  11.2738369  81.7282300  70.4746942
  10.7584993  82.4986905  70.7135330  11.0015678  81.0547436  71.0980004
   8.8585480  76.5732001  75.5332181   8.0027077  76.1838851  75.3537820
   9.2712432  76.6523962  74.6731966  10.3884627  74.1078344  79.9323741
   9.8849423  74.0708479  79.1191546  10.6815234  75.0171087  79.9920397
   6.6327513  74.1917074  78.9389922   7.4980510  73.9959883  78.5795812
   6.7005022  73.9627426  79.8659279  16.2472643  84.4814655  72.4100116
  15.4702086  84.1425814  71.9655278  16.9264124  84.4867278  71.7355081
  11.0624673  79.6009392  72.3006724  10.7574808  79.9155541  73.1516867
  12.0155115  79.6790812  72.3434057   9.5071104  85.7599616  73.9499678
   8.9792466  85.0252375  73.6372915   9.0058607  86.5374292  73.7039646
  14.4863950  83.9548636  79.0666724  13.8287625  84.6447897  79.1546853
  15.2904350  84.3445068  79.4100710   4.2389832  76.4219282  76.3106289
   4.8133584  76.1994463  75.5779482   4.8260814  76.4907976  77.0634890
  13.2969409  82.3093009  77.1170666  13.8101291  82.9423001  77.6192375
  13.9470633  81.7094204  76.7514026   4.5659419  78.4523743  70.3302174
   3.7296731  78.7898429  70.6511449   4.4264189  78.3172723  69.3929311
   6.5412500  73.2960531  75.0381359   5.8876912  72.9809548  74.4137973
   6.4992974  72.6736271  75.7641181   7.6523705  83.5779826  66.9534651
   6.7450766  83.3469079  67.1525800   8.1494737  82.7817445  67.1408632
   9.7750240  79.7842464  79.3629006   8.8572801  80.0057411  79.2050694
  10.1910384  79.8588775  78.5040714  10.5585288  81.1833880  74.4931686
  11.3057107  81.6955277  74.1838808  10.8276877  80.8617933  75.3536080
   8.8311938  83.6792421  71.4758641   7.9223157  83.3951453  71.5731110
   8.8607022  84.0991499  70.6161948  14.0631205  87.2899010  75.2449808
  13.6093533  86.4489920  75.3014999  13.4325172  87.9260409  75.5824588
  13.0064125  78.2190996  76.4750476  12.2686882  77.7068382  76.8060718
  13.2590899  77.7791378  75.6633753  12.5064145  89.1275507  76.1799626
  12.7987119  89.6880564  75.4611992  13.0162765  89.4204068  76.9352786
  13.1075752  70.9967248  77.0692245  13.4134629  70.1364612  76.7818160
  13.8328357  71.5884868  76.8691239   7.3796832  81.2921041  77.5768436
   7.4345442  80.3394878  77.5010913   6.5688034  81.4480480  78.0609734
   8.5288026  85.2201164  68.8146719   8.0907456  84.5037023  68.3552357
   9.2698467  85.4477279  68.2531811   5.3189192  79.9098101  75.3358815
   4.5057057  80.2092272  75.7424007   5.8148186  79.5153790  76.0533297
   7.4697770  89.9055858  77.2693080   7.4273949  90.1316704  76.3401612
   8.3860469  89.6719232  77.4178881  10.9163404  80.3739925  84.1673709
  11.2712791  80.6011399  85.0268175  11.5635535  80.7058302  83.5450964
  16.6461141  83.4958361  74.8723038  16.5079039  83.6859957  73.9444227
  16.2897359  84.2577744  75.3291089   4.8103267  77.4816457  80.9520050
   5.4502646  77.3405216  80.2543013   3.9780797  77.1950970  80.5758652
  16.6730520  85.5634888  79.8834309  17.1067027  85.4710177  80.7317363
  17.3862101  85.5392389  79.2454325   5.5863571  86.7818887  77.0655042
   6.3804169  86.2869207  76.8637617   4.8755263  86.2536750  76.7022748
   1.8946334  80.9261969  73.1414795   0.9643922  80.8646424  73.3584757
   1.9903806  80.4037921  72.3451436   1.8131883  77.4516781  75.7293037
   2.0738700  78.3662115  75.6202197   2.6349055  76.9841224  75.8789650
  17.5346070  85.6058589  82.4167195  17.7281960  86.5104400  82.6626470
  17.4346688  85.1466008  83.2505780   9.1882380  75.4916480  84.9157522
   8.5410296  76.1906429  84.8221999   9.9583396  75.9252624  85.2833770
   9.3646515  83.3297244  82.9754342  10.2938575  83.4808404  82.8023309
   8.9437545  83.4181265  82.1202988   9.7140062  86.7329512  78.1341717
   9.3789894  86.6930282  79.0299367   9.2144007  86.0674228  77.6612127
  12.6499253  84.0785546  68.4078777  12.0328424  83.3532374  68.3111830
  12.1815742  84.8394906  68.0645851   4.4397799  78.2970970  67.5300081
   3.5627266  78.1759771  67.1662328   4.9155552  77.5057049  67.2778970
  14.3070792  86.7524038  84.2998537  13.4197571  86.4149960  84.4224936
  14.8769343  86.0207069  84.5367302  10.9358375  76.4591890  77.4196807
  11.4327075  75.7061852  77.0997877  10.1645357  76.4956207  76.8540016
  18.7888133  82.1632256  79.0615099  18.7778009  83.0456971  78.6909032
  17.9205512  81.8103806  78.8669636  12.0188156  85.2163577  74.9935230
  11.0844435  85.3365040  74.8239935  12.1964825  84.3136044  74.7295240
   7.5193344  78.6009273  77.1468492   7.1491132  78.0480313  77.8349397
   8.0152437  77.9967407  76.5943492  15.4060708  81.0580897  75.5285265
  15.8721160  81.8908888  75.4545567  15.8568208  80.5925878  76.2330523
  13.4736939  87.4024718  72.5271417  13.7496783  87.2881312  73.4365291
  12.6041437  87.0042203  72.4883590  13.3777370  73.4261484  79.5676166
  12.4640450  73.6565710  79.7358373  13.8070472  73.5099928  80.4190198
  13.1483829  81.6151376  82.0676060  12.4955279  81.8627283  81.4128513
  13.5264209  80.8015514  81.7338537  10.1091003  91.6511069  76.1704230
  10.2913397  90.8332725  76.6331983  10.9323989  91.8678761  75.7329120
  10.4433168  90.5779254  73.4319279  10.9720935  90.0671708  72.8189441
  10.7061388  90.2621784  74.2964812  11.0762572  91.6120090  79.7763395
  10.9513711  90.8109829  79.2674341  11.7341663  92.1066283  79.2877365
   2.6970740  77.9668822  78.9540535   1.9757326  78.5804790  78.8148009
   3.4863996  78.5026587  78.8757181  13.1397480  89.4129110  81.4042945
  12.1927816  89.2934461  81.3321272  13.4880253  88.5251608  81.4869207
   0.8964335  77.5726923  73.0952312   0.5677041  76.6924302  72.9127418
   1.2503705  77.5174592  73.9828701  10.1443914  89.2081826  77.6047298
   9.9968876  88.2798533  77.7854868  10.9697407  89.2301917  77.1204373
   4.0106158  77.8599893  73.4627790   4.3502230  78.3885814  72.7406398
   4.4578278  78.1980299  74.2386356  13.7478035  90.0310385  78.6912170
  14.6724583  89.8253246  78.5536621  13.5793339  89.7826786  79.6001512
   6.7049599  76.2436944  82.9130858   6.3646419  75.4444757  83.3151538
   5.9988605  76.5438655  82.3407691   7.3566071  73.3286256  81.3658181
   8.1792140  72.8546734  81.2437071   7.6004134  74.1076740  81.8656867
   5.9974305  76.3574515  71.6621082   6.7182668  76.7355767  71.1584799
   5.3739609  77.0763391  71.7656060  10.1405428  77.0619664  72.5979415
  10.3569042  77.9444301  72.2968243   9.6599495  76.6705877  71.8685057
   4.8804649  80.0205377  79.1750159   4.7349230  80.3345680  80.0674441
   4.4029853  80.6390277  78.6221058   6.7401032  77.0107925  79.2231049
   6.7262601  76.1149018  78.8863347   7.4573460  77.0178588  79.8569335
   8.5927163  77.4445265  81.2684176   8.3344941  78.3662336  81.2668507
   8.0612203  77.0475699  81.9584640  13.5373352  90.5496052  74.0474262
  13.7110229  89.9842475  73.2948114  14.0302243  91.3496947  73.8653752
   6.1437928  75.8922305  74.4918619   6.2653839  74.9638951  74.6909507
   5.8539970  75.9060991  73.5796934   9.0129119  73.5777215  77.6285339
   9.0350815  73.6416549  76.6737318   9.4297178  72.7381724  77.8225845
  19.3912743  83.3132475  75.6664561  19.8343889  82.5639800  75.2683685
  18.5139253  83.3042611  75.2838293  14.5248524  89.8662816  71.1471160
  15.2199429  90.4869509  71.3658475  14.8671674  89.0158168  71.4223538
  16.4239947  87.3162522  72.6758491  16.9491271  87.6549795  71.9507811
  16.3362300  86.3809537  72.4921625  16.2331728  84.7987892  85.2942417
  16.2829733  84.6337899  86.2357940  16.1245652  83.9315151  84.9040298
   5.1167987  87.4776438  72.5834506   5.2656107  88.1611902  71.9301179
   5.9234431  87.4581528  73.0983962  13.5235491  80.7818820  86.6101724
  14.4245354  80.6425285  86.3185722  13.5983465  80.9473275  87.5499901
  17.7349925  87.2184834  85.5384439  17.4434734  87.5814814  86.3747900
  17.1222057  86.5051842  85.3597771  18.9345608  84.7837713  78.0587009
  19.7692499  85.2227517  78.2224569  19.0704736  84.3076367  77.2395255
  15.9837113  82.3417448  84.0064497  16.4591235  82.5345094  83.1983348
  15.0602679  82.3976634  83.7607880   2.8720620  83.5041615  73.5895575
   2.6266662  82.6003945  73.7875785   3.0416535  83.5058766  72.6475053
  10.5617330  74.3765292  82.9720331  11.0799274  75.1126319  82.6466819
  10.2072463  74.6829285  83.8067090   2.1416268  79.2369973  71.0881737
   1.4485513  79.3114328  70.4321773   1.8968020  78.4730317  71.6103253
  10.8129924  70.7965574  78.4921227  11.0931678  70.1288763  79.1181654
  11.5980531  70.9894670  77.9795891   8.6163393  89.9724568  70.0546254
   8.0437360  90.5914755  69.6016725   9.1896186  90.5223930  70.5886176
  14.6838782  79.2183208  82.2392802  15.6356205  79.3181306  82.2605026
  14.5142233  78.4261477  82.7490887  12.7053162  76.3038791  82.4252203
  12.1103094  76.5843804  81.7298692  12.4202859  76.7932692  83.1968944
  11.8360652  90.2561718  71.1854836  12.7691326  90.1907280  71.3887711
  11.7483865  91.0917985  70.7269369  14.4648669  89.5727589  68.1458783
  14.3862301  89.2387452  69.0394541  15.2858336  90.0649357  68.1450256
  17.1626860  82.4389328  81.3535102  17.1303180  81.5005329  81.5394786
  17.7727484  82.5173365  80.6200927   9.0010191  81.3085381  67.3962306
   9.9469296  81.1791589  67.4650724   8.6224436  80.5700043  67.8731734
  17.3121349  79.2300371  81.3993385  16.7960397  78.4458828  81.2123314
  18.1961297  78.9019088  81.5639905  14.9732076  72.9741387  77.3589198
  14.7756897  72.6656475  78.2432530  15.5831781  73.7003026  77.4887128
  22.9803410  83.5005335  80.4941139  23.7106799  83.2390623  81.0548842
  22.3710356  82.7634057  80.5343207  21.0618707  81.6413197  81.0915590
  20.3351871  81.5069162  80.4832082  20.6465994  81.9490026  81.8972308
   7.1853108  79.2335357  67.3317191   6.2784564  78.9368470  67.4079905
   7.4629089  78.9365175  66.4651478   8.8015174  73.7772247  73.4861433
   7.9915902  73.4319332  73.8616679   9.4899591  73.4679791  74.0749044
  10.7305722  72.8550294  75.1085729  11.2836761  73.2745747  75.7675752
  10.9675809  71.9286042  75.1508685   5.9551893  76.0922292  67.4729171
   6.8171057  76.4177191  67.7324988   6.1402237  75.3053788  66.9602236
  14.1084529  74.9650819  74.6164394  13.5283198  75.6235623  74.2342446
  13.8420462  74.1428164  74.2051811  12.5588096  74.3655877  76.8185714
  13.0587874  74.4772411  76.0100033  13.2023704  74.0616930  77.4586522
  12.8909407  77.1250909  73.6720742  12.0035262  77.4100560  73.4540937
  13.3063396  76.9644673  72.8248019  16.2423944  77.1497430  77.3875081
  17.0184334  77.6393883  77.6599698  15.5172078  77.5755485  77.8446951
  12.0352621  86.8895584  67.7668762  12.7388471  87.0945587  68.3826417
  11.3115270  87.4572346  68.0317845  12.8650431  82.6405445  73.8871032
  12.8085633  83.0973997  73.0478664  13.4178774  81.8796130  73.7093875
  16.6755237  78.4295177  74.7121151  16.4192171  78.0291813  75.5429359
  16.0508105  79.1438971  74.5871291  20.9867575  81.1691250  77.2192443
  20.4267133  81.2384440  77.9924005  20.3811078  80.9932235  76.4991939
  13.9439318  87.3278113  69.8167222  14.7784922  86.8959312  69.6344697
  13.7823661  87.1560127  70.7444116  13.5985210  83.8310227  71.1823561
  13.5434014  83.6654498  70.2412005  12.9731266  84.5386259  71.3385751
   6.9081336  73.3318336  70.7608880   6.8960006  74.2760175  70.9177150
   7.8004758  73.1488481  70.4668341  10.7233455  69.9261112  75.0154816
   9.9565851  69.3719599  75.1611499  11.1344160  69.9982981  75.8768968
  27.5273289  95.5074451  77.8908585  28.2598461  94.9373668  78.1246415
  26.7712645  95.1196052  78.3315091  25.0498709  89.2196025  82.3503194
  24.7182034  90.0891436  82.1264409  24.4544323  88.9032309  83.0297224
  18.7854896  92.9591593  70.0833276  18.9529298  93.8271829  70.4503747
  18.5952065  93.1218874  69.1594565  24.9427373  93.9391112  79.4296544
  24.0344250  93.8706520  79.1355305  24.8914968  94.4163057  80.2578369
  26.8089019  92.1407550  81.2074418  26.1663399  92.4340083  80.5614212
  26.3043948  92.0260470  82.0127614  24.4629183  95.8870723  71.8960277
  25.3747039  96.1198110  71.7207974  23.9538830  96.4707767  71.3335356
  22.2500466  92.9072326  84.5636300  22.0061398  93.6614387  84.0270576
  22.5260396  93.2857674  85.3983547  21.8065157  92.0628759  80.1450138
  20.9449637  92.3610013  80.4366875  21.8327592  92.2799158  79.2131170
  33.4090750  98.6721642  77.7620895  32.6554458  98.1029041  77.6064899
  33.5438291  98.6384307  78.7091529  22.1481841  87.0665607  81.9674507
  21.8046111  87.9567248  81.8913618  22.5160804  86.8767264  81.1044092
  19.6979235  91.9023919  75.5332181  18.8420831  91.5130769  75.3537820
  20.1106187  91.9815879  74.6731966  21.2278382  89.4370262  79.9323741
  20.7243177  89.4000397  79.1191546  21.5208988  90.3463005  79.9920397
  17.4721267  89.5208992  78.9389922  18.3374264  89.3251800  78.5795812
  17.5398776  89.2919343  79.8659279  21.9018427  94.9301310  72.3006724
  21.5968563  95.2447459  73.1516867  22.8548869  95.0082730  72.3434057
  15.0783586  91.7511199  76.3106289  15.6527338  91.5286381  75.5779482
  15.6654569  91.8199894  77.0634890  17.3806254  88.6252448  75.0381359
  16.7270667  88.3101466  74.4137973  17.3386728  88.0028189  75.7641181
  23.8457879  93.5482914  76.4750476  23.1080636  93.0360300  76.8060718
  24.0984653  93.1083295  75.6633753  23.9469507  86.3259166  77.0692245
  24.2528384  85.4656529  76.7818160  24.6722112  86.9176786  76.8691239
  21.7557158  95.7031843  84.1673709  22.1106546  95.9303316  85.0268175
  22.4029289  96.0350220  83.5450964  15.6497021  92.8108374  80.9520050
  16.2896401  92.6697133  80.2543013  14.8174552  92.5242888  80.5758652
  20.0276135  90.8208397  84.9157522  19.3804050  91.5198347  84.8221999
  20.7977150  91.2544541  85.2833770  21.7752130  91.7883808  77.4196807
  22.2720829  91.0353770  77.0997877  21.0039111  91.8248124  76.8540016
  29.6281887  97.4924173  79.0615099  29.6171764  98.3748889  78.6909032
  28.7599267  97.1395724  78.8669636  18.3587099  93.9301191  77.1468492
  17.9884886  93.3772231  77.8349397  18.8546191  93.3259324  76.5943492
  26.2454462  96.3872814  75.5285265  26.7114914  97.2200806  75.4545567
  26.6961962  95.9217796  76.2330523  24.2171125  88.7553401  79.5676166
  23.3034205  88.9857628  79.7358373  24.6464226  88.8391845  80.4190198
  17.5443353  91.5728861  82.9130858  17.2040174  90.7736674  83.3151538
  16.8382359  91.8730572  82.3407691  18.1959825  88.6578174  81.3658181
  19.0185894  88.1838652  81.2437071  18.4397889  89.4368658  81.8656867
  16.8368060  91.6866432  71.6621082  17.5576422  92.0647685  71.1584799
  16.2133364  92.4055309  71.7656060  20.9799182  92.3911581  72.5979415
  21.1962797  93.2736219  72.2968243  20.4993250  91.9997795  71.8685057
  17.5794787  92.3399842  79.2231049  17.5656355  91.4440936  78.8863347
  18.2967215  92.3470506  79.8569335  19.4320917  92.7737183  81.2684176
  19.1738695  93.6954253  81.2668507  18.9005958  92.3767617  81.9584640
  16.9831683  91.2214223  74.4918619  17.1047594  90.2930869  74.6909507
  16.6933725  91.2352909  73.5796934  19.8522873  88.9069133  77.6285339
  19.8744570  88.9708466  76.6737318  20.2690932  88.0673642  77.8225845
  30.2306497  98.6424393  75.6664561  30.6737643  97.8931718  75.2683685
  29.3533008  98.6334529  75.2838293  24.3629245  96.1110738  86.6101724
  25.2639108  95.9717203  86.3185722  24.4377220  96.2765193  87.5499901
  21.4011084  89.7057209  82.9720331  21.9193028  90.4418236  82.6466819
  21.0466217  90.0121203  83.8067090  21.6523679  86.1257492  78.4921227
  21.9325432  85.4580681  79.1181654  22.4374286  86.3186588  77.9795891
  25.5232537  94.5475126  82.2392802  26.4749960  94.6473224  82.2605026
  25.3535987  93.7553394  82.7490887  23.5446916  91.6330709  82.4252203
  22.9496849  91.9135722  81.7298692  23.2596613  92.1224610  83.1968944
  28.0020615  97.7681246  81.3535102  27.9696935  96.8297246  81.5394786
  28.6121238  97.8465282  80.6200927  28.1515103  94.5592289  81.3993385
  27.6354152  93.7750746  81.2123314  29.0355052  94.2311006  81.5639905
  25.8125830  88.3033305  77.3589198  25.6150651  87.9948393  78.2432530
  26.4225536  89.0294944  77.4887128  33.8197165  98.8297252  80.4941139
  34.5500553  98.5682541  81.0548842  33.2104110  98.0925974  80.5343207
  31.9012462  96.9705115  81.0915590  31.1745625  96.8361080  80.4832082
  31.4859749  97.2781944  81.8972308  18.0246863  94.5627275  67.3317191
  17.1178318  94.2660388  67.4079905  18.3022844  94.2657093  66.4651478
  19.6408928  89.1064165  73.4861433  18.8309657  88.7611250  73.8616679
  20.3293345  88.7971708  74.0749044  21.5699477  88.1842211  75.1085729
  22.1230515  88.6037665  75.7675752  21.8069563  87.2577960  75.1508685
  16.7945647  91.4214210  67.4729171  17.6564811  91.7469108  67.7324988
  16.9795992  90.6345706  66.9602236  24.9478284  90.2942737  74.6164394
  24.3676953  90.9527541  74.2342446  24.6814217  89.4720081  74.2051811
  23.3981850  89.6947794  76.8185714  23.8981629  89.8064329  76.0100033
  24.0417458  89.3908847  77.4586522  23.7303162  92.4542827  73.6720742
  22.8429017  92.7392478  73.4540937  24.1457151  92.2936590  72.8248019
  27.0817698  92.4789348  77.3875081  27.8578088  92.9685800  77.6599698
  26.3565832  92.9047402  77.8446951  29.5190257  93.1916967  78.4449022
  30.1134747  92.9512703  77.7342330  29.5916840  92.4724098  79.0722558
  27.5148992  93.7587095  74.7121151  27.2585926  93.3583730  75.5429359
  26.8901860  94.4730889  74.5871291  31.8261329  96.4983168  77.2192443
  31.2660887  96.5676357  77.9924005  31.2204833  96.3224153  76.4991939
  17.7475090  88.6610253  70.7608880  17.7353760  89.6052093  70.9177150
  18.6398512  88.4780399  70.4668341  21.5627210  85.2553030  75.0154816
  20.7959606  84.7011517  75.1611499  21.9737915  85.3274899  75.8768968
   1.3015902  29.8483622  67.2186445   2.0319291  29.5868910  67.7794149
   0.6922848  29.1112344  67.2588513   0.8936086  44.1926052  66.6367705
   1.5314496  44.0732799  65.9331045   0.7756929  45.1406896  66.6955657
   5.8485781  41.8552739  64.6153892   6.5810953  41.2851955  64.8491721
   5.0925137  41.4674339  65.0560397   3.3711202  35.5674313  69.0748500
   3.0394526  36.4369724  68.8509715   2.7756815  35.2510597  69.7542531
   3.2639865  40.2869399  66.1541850   2.3556742  40.2184807  65.8600611
   3.2127461  40.7641344  66.9823676   5.1301511  38.4885837  67.9319724
   4.4875892  38.7818370  67.2859519   4.6256440  38.3738758  68.7372921
   2.7841675  42.2349010  58.6205584   3.6959531  42.4676397  58.4453281
   2.2751322  42.8186055  58.0580662   1.3911257  47.2174829  66.0119165
   0.7620120  47.3820543  65.3095233   1.0036919  47.6316438  66.7830129
   5.2700489  48.1529267  63.3663529   4.5851527  48.5328168  62.8160562
   5.3544338  48.7624593  64.0995477   2.5251421  45.7989226  69.9658872
   2.7368316  46.4420986  69.2893253   2.4781169  44.9651542  69.4980802
   3.6397249  48.6761181  68.1381230   4.4614692  48.2741369  67.8563911
   3.6359652  48.5729415  69.0897345  11.7303242  45.0199930  64.4866201
  10.9766950  44.4507328  64.3310206  11.8650783  44.9862594  65.4336836
   0.8451584  50.7939698  72.3202664   0.8270060  51.6148580  71.8282933
   1.7671504  50.6693774  72.5452805   5.4078890  46.1584860  59.1345423
   4.6308333  45.8196019  58.6900585   6.0870371  46.1637483  58.4600388
   3.6470197  45.6318841  65.7912031   2.9893872  46.3218102  65.8792159
   4.4510596  46.0215273  66.1346017   2.4575656  43.9863214  63.8415972
   2.9707538  44.6193205  64.3437682   3.1076880  43.3864409  63.4759332
   3.2237452  48.9669215  61.9695115   2.7699779  48.1260125  62.0260305
   2.5931419  49.6030613  62.3069895   2.1670372  39.8961201  63.1995782
   1.4293129  39.3838587  63.5306025   2.4197145  39.4561583  62.3879059
   1.6670391  50.8045712  62.9044933   1.9593366  51.3650769  62.1857299
   2.1769012  51.0974273  63.6598092   2.2681999  32.6737453  63.7937552
   2.5740876  31.8134817  63.5063467   2.9934604  33.2655073  63.5936546
   5.8067387  45.1728566  61.5968344   5.6685286  45.3630162  60.6689534
   5.4503606  45.9347949  62.0536396   5.8336767  47.2405093  66.6079616
   6.2673274  47.1480382  67.4562670   6.5468348  47.2162594  65.9699632
   6.6952317  47.2828794  69.1412501   6.8888207  48.1874604  69.3871776
   6.5952935  46.8236213  69.9751086   1.7567425  47.4335537  74.7153382
   1.6052932  47.2046088  73.7983466   1.7472105  48.3906138  74.7284727
   1.8105500  45.7555751  55.1324084   1.1934671  45.0302579  55.0357136
   1.3421989  46.5165111  54.7891158   3.4659632  50.4654659  72.7929864
   3.4072178  49.7813879  72.1260447   3.8679150  51.2073649  72.3410490
   3.4677039  48.4294243  71.0243844   2.5803818  48.0920165  71.1470242
   4.0375590  47.6977274  71.2612609   7.9494380  43.8402461  65.7860405
   7.9384256  44.7227176  65.4154338   7.0811759  43.4874011  65.5914942
   4.5666954  42.7351101  62.2530571   5.0327406  43.5679093  62.1790874
   5.0174455  42.2696083  62.9575830   2.6343185  49.0794923  59.2516723
   2.9103029  48.9651517  60.1610597   1.7647684  48.6812408  59.2128896
   2.5383617  35.1031688  66.2921473   1.6246697  35.3335915  66.4603680
   2.9676718  35.1870133  67.1435505   2.3090076  43.2921580  68.7921367
   1.6561526  43.5397488  68.1373819   2.6870455  42.4785719  68.4583844
   1.9511306  50.1669576  75.3693674   2.4951210  50.7799535  74.8748629
   1.3698151  50.7249155  75.8860687   2.3003727  51.0899315  68.1288252
   1.3534063  50.9704666  68.0566579   2.6486500  50.2021813  68.2114513
   2.9084282  51.7080590  65.4157477   3.8330830  51.5023451  65.2781928
   2.7399586  51.4596991  66.3246818   2.6979598  52.2266257  60.7719568
   2.8716476  51.6612679  60.0193421   3.1908490  53.0267152  60.5899058
   8.5518990  44.9902680  62.3909868   8.9950136  44.2410005  61.9928991
   7.6745500  44.9812816  62.0083600   3.6854771  51.5433021  57.8716467
   4.3805676  52.1639714  58.0903781   4.0277921  50.6928373  58.1468845
   5.5846194  48.9932727  59.4003797   6.1097518  49.3320000  58.6753117
   5.4968547  48.0579742  59.2166932   5.2740100  49.6265631  74.7054995
   4.4835644  49.6089769  74.1659495   5.0373455  50.1653924  75.4604032
   5.3937975  46.4758097  72.0187724   5.4435980  46.3108104  72.9603247
   5.2851899  45.6085356  71.6285605   2.6841738  42.4589025  73.3347031
   3.5851600  42.3195490  73.0431028   2.7589712  42.6243480  74.2745208
   6.8956172  48.8955038  72.2629745   6.6040980  49.2585019  73.0993206
   6.2828303  48.1822047  72.0843078   8.0951854  46.4607918  64.7832316
   8.9298746  46.8997722  64.9469876   8.2310983  45.9846571  63.9640561
   5.1443360  44.0187653  70.7309803   5.6197482  44.2115299  69.9228655
   4.2208926  44.0746839  70.4853187   3.8445029  40.8953413  68.9638109
   4.7962452  40.9951511  68.9850333   3.6748480  40.1031682  69.4736193
   1.8659409  37.9808996  69.1497510   1.2709341  38.2614009  68.4543999
   1.5809105  38.4702897  69.9214251   0.9966899  51.9331923  57.9100143
   1.9297572  51.8677485  58.1133018   0.9090112  52.7688190  57.4514675
   3.6254916  51.2497794  54.8704090   3.5468547  50.9157657  55.7639848
   4.4464583  51.7419561  54.8695562   6.3233107  44.1159533  68.0780409
   6.2909427  43.1775534  68.2640093   6.9333731  44.1943570  67.3446234
   6.4727596  40.9070576  68.1238692   5.9566644  40.1229033  67.9368621
   7.3567544  40.5789293  68.2885211   4.1338322  34.6511592  64.0834505
   3.9363144  34.3426680  64.9677837   4.7438028  35.3773231  64.2132434
  12.1409657  45.1775540  67.2186445  12.8713045  44.9160828  67.7794149
  11.5316602  44.4404262  67.2588513  10.2224954  43.3183402  67.8160897
   9.4958118  43.1839367  67.2077388   9.8072241  43.6260231  68.6217615
   3.2690776  36.6421024  61.3409700   2.6889445  37.3005828  60.9587753
   3.0026709  35.8198368  60.9297118   1.7194343  36.0426082  63.5431020
   2.2194121  36.1542616  62.7345339   2.3629950  35.7387134  64.1831829
   2.0515654  38.8021114  60.3966048   1.1641509  39.0870765  60.1786243
   2.4669643  38.6414878  59.5493325   5.4030190  38.8267635  64.1120388
   6.1790580  39.3164088  64.3845004   4.6778324  39.2525689  64.5692257
   7.8402749  39.5395254  65.1694328   8.4347240  39.2990990  64.4587637
   7.9129333  38.8202385  65.7967865   2.0256678  44.3175650  60.6116339
   1.9691879  44.7744202  59.7723971   2.5785020  43.5566335  60.4339181
   5.8361484  40.1065382  61.4366458   5.5798418  39.7062018  62.2674666
   5.2114352  40.8209176  61.3116597  10.1473822  42.8461455  63.9437749
   9.5873380  42.9154645  64.7169312   9.5417325  42.6702440  63.2237246
   3.1045565  49.0048318  56.5412528   3.9391169  48.5729517  56.3590003
   2.9429908  48.8330332  57.4689423   2.7591457  45.5080431  57.9068868
   2.7040261  45.3424703  56.9657312   2.1337512  46.2156464  58.0631057
  11.7329840  59.5217969  66.6367705  12.3708250  59.4024717  65.9331045
  11.6150683  60.4698813  66.6955657   8.5419546  59.4745397  66.5729230
   8.2038058  59.3586462  65.6849765   9.4109315  59.0736562  66.5530236
   4.4006362  61.3280874  62.5626121   3.8371227  61.2370811  61.7942409
   4.2858757  60.5080778  63.0428613   9.0239329  60.6280249  72.5315435
   9.0127970  60.2333047  71.6595939   9.1859969  59.8946322  73.1249207
   1.9470794  62.8232065  65.4010341   2.7392086  62.4822890  64.9856641
   2.1867444  62.9327040  66.3212495   9.9805921  64.9951841  57.8740586
   9.3293901  65.5805922  57.4874600  10.7750284  65.5258036  57.9335623
   3.9061548  62.0840979  58.2727720   4.6792424  61.5369966  58.1340596
   4.2586947  62.9485228  58.4842181   5.7446591  63.4117361  71.4794619
   5.4536457  64.3162992  71.3641286   6.3803575  63.4533888  72.1938689
   6.6702797  60.7894209  68.0695979   7.2666370  60.5650232  67.3552942
   6.7277769  60.0478955  68.6721427   6.2427826  58.2433645  55.9046170
   6.4953346  57.7215166  55.1429633   5.3052385  58.0799790  56.0072854
  11.2871109  57.2469423  63.7120913  12.0734198  56.8288846  63.3611330
  11.5509813  58.1515515  63.8802562  11.4581186  62.6842273  58.4109570
  10.8227019  62.7576900  59.1230475  11.1278592  63.2735872  57.7328649
  16.6879536  57.1844656  64.6153892  17.4204708  56.6143873  64.8491721
  15.9318891  56.7966257  65.0560397   5.9624115  60.1461751  58.1070545
   5.8460373  59.4706654  58.7751629   6.0726374  59.6594125  57.2902698
   8.3055655  59.6071898  61.8117234   7.9413863  59.0802519  62.5230156
   9.1622771  59.2170367  61.6383720  14.2104956  50.8966230  69.0748500
  13.8788281  51.7661641  68.8509715  13.6150569  50.5802514  69.7542531
   7.9461142  54.6361797  56.8078583   8.1135545  55.5042034  57.1749054
   7.7558312  54.7989079  55.8839872  10.7036476  63.0978776  68.4744413
  10.4037199  64.0003815  68.3660220  10.3587535  62.8310960  69.3265566
   4.1548957  59.5492573  64.5081117   3.2299454  59.4168787  64.7158809
   4.4033370  60.3286792  65.0051060  14.1033619  55.6161317  66.1541850
  13.1950497  55.5476725  65.8600611  14.0521215  56.0933262  66.9823676
   7.9250363  57.0919455  57.7925250   7.8049989  57.5376506  58.6310730
   7.2302952  57.4404773  57.2338788   1.5157768  59.1925847  65.3424907
   1.6450149  59.4460326  66.2564318   0.8355219  59.7853555  65.0229562
   5.6857255  69.8623097  61.4415381   5.6081285  70.8130922  61.5203861
   5.0818899  69.5168969  62.0990307   8.1774485  57.0350962  74.0976748
   7.4007819  57.5944882  74.0879612   8.8165048  57.5207745  74.6191618
  15.9695266  53.8177755  67.9319724  15.3269646  54.1110288  67.2859519
  15.4650194  53.7030675  68.7372921  13.6235429  57.5640928  58.6205584
  14.5353286  57.7968315  58.4453281  13.1145077  58.1477972  58.0580662
   6.4320857  59.8436416  73.6594715   7.1735542  60.3821459  73.3829538
   5.7257843  60.4702704  73.8166266   8.2607267  56.9238163  69.6300433
   9.1068462  57.3477576  69.7735082   8.2005905  56.2671787  70.3238996
  11.4106713  54.5842531  71.2881607  11.1667644  55.3384592  70.7515882
  11.6866643  54.9627879  72.1228854  10.9671404  53.7398964  66.8695444
  10.1055883  54.0380218  67.1612182  10.9933839  53.9569363  65.9376477
   7.7832974  62.2841155  63.2769250   8.2471319  62.5628858  62.4873873
   7.5189772  61.3824599  63.0942341   4.6757055  61.8312636  66.2149013
   5.2458412  62.2599905  65.5766498   5.2665167  61.5495221  66.9133199
   6.7201860  58.4064307  60.0858815   7.4225903  58.8585351  60.5532742
   6.3882488  57.7648126  60.7138708   5.1682221  56.9976064  74.4610025
   4.5380882  57.6792345  74.6945421   5.0618309  56.8859145  73.5163163
   2.4141939  57.0292439  62.3459426   1.6173102  57.1411133  62.8642921
   2.1867531  57.3679091  61.4800316   8.2447607  63.5537142  70.2941940
   8.3092039  64.0157549  71.1300112   7.5358531  62.9234507  70.4224250
   7.9595624  65.2205250  60.1620920   7.8241299  66.0656785  60.5905768
   8.5005437  65.4224527  59.3986854   4.4462964  51.2996830  76.8235276
   4.0529910  50.7463028  77.4982920   5.2629104  51.6107408  77.2141793
   1.4125022  62.7380688  60.7348846   1.9249542  63.5323938  60.8854410
   2.0647735  62.0406978  60.6682447   3.2219906  65.8546444  62.8171599
   3.3986535  66.7764409  62.6292583   4.0176740  65.5404863  63.2465979
   7.3630925  52.7154709  74.4155532   8.1040638  53.3161862  74.3359995
   7.5948848  51.9732346  73.8573575   2.5072263  57.9011076  72.6933762
   2.3925778  56.9996333  72.9940861   1.6516781  58.1474773  72.3418579
   9.5864101  65.8428816  74.2921263   9.1427955  65.0565195  73.9742167
  10.2481314  66.0307967  73.6265153   4.3451222  67.3724618  68.8181941
   4.8958647  67.2441681  68.0458935   3.5062698  67.6719507  68.4676834
  11.6845339  66.1231616  72.3202664  11.6663814  66.9440497  71.8282933
  12.6065259  65.9985691  72.5452805   8.1418393  63.6375746  73.1626172
   8.6746730  62.8764034  72.9325480   7.6132474  63.3449397  73.9050327
  11.3088088  48.7435812  68.6919814  10.9652357  49.6337453  68.6158925
  11.6767050  48.5537469  67.8289399  11.2738371  58.7344423  57.1992249
  10.7584994  59.5049027  57.4380636  11.0015679  58.0609559  57.8225311
   8.8585482  53.5794123  62.2577487   8.0027078  53.1900974  62.0783126
   9.2712433  53.6586084  61.3977273  10.3884628  51.1140467  66.6569047
   9.8849424  51.0770602  65.8436852  10.6815235  52.0233209  66.7165704
   6.6327514  51.1979196  65.6635229   7.4980511  51.0022005  65.3041118
   6.7005023  50.9689548  66.5904586  11.0624674  56.6071515  59.0252030
  10.7574809  56.9217664  59.8762173  12.0155116  56.6852935  59.0679363
   9.5071106  62.7661738  60.6744984   8.9792467  62.0314498  60.3618222
   9.0058608  63.5436414  60.4284953   4.2389833  53.4281404  63.0351596
   4.8133585  53.2056586  62.3024789   4.8260816  53.4970099  63.7880197
  13.2969410  59.3155131  63.8415972  13.8101292  59.9485123  64.3437682
  13.9470634  58.7156327  63.4759332   4.5659420  55.4585865  57.0547481
   3.7296733  55.7960552  57.3756756   4.4264190  55.3234845  56.1174618
   6.5412501  50.3022653  61.7626665   5.8876913  49.9871670  61.1383280
   6.4992975  49.6798394  62.4886488   7.6523706  60.5841948  53.6779957
   6.7450768  60.3531202  53.8771106   8.1494738  59.7879568  53.8653939
  10.5591785  69.2939456  56.5976643   9.8853483  69.5971152  57.2061601
  10.9457607  70.0968536  56.2482100   9.7750241  56.7904587  66.0874313
   8.8572803  57.0119534  65.9296001  10.1910385  56.8650897  65.2286020
  10.5585289  58.1896003  61.2176993  11.3057108  58.7017400  60.9084115
  10.8276879  57.8680055  62.0781387   8.8311939  60.6854543  58.2003947
   7.9223159  60.4013576  58.2976417   8.8607023  61.1053622  57.3407254
  13.0064126  55.2253119  63.1995782  12.2686883  54.7130505  63.5306025
  13.2590900  54.7853500  62.3879059  13.1075754  48.0029371  63.7937552
  13.4134630  47.1426734  63.5063467  13.8328358  48.5946991  63.5936546
   7.3796833  58.2983164  64.3013743   7.4345443  57.3457000  64.2256219
   6.5688035  58.4542603  64.7855041   8.5288027  62.2263287  55.5392026
   8.0907457  61.5099146  55.0797663   9.2698468  62.4539402  54.9777117
   5.3189193  56.9160224  62.0604122   4.5057059  57.2154394  62.4669314
   5.8148187  56.5215912  62.7778604   7.4697771  66.9117981  63.9938386
   7.4273950  67.1378827  63.0646918   8.3860470  66.6781355  64.1424187
  10.9163405  57.3802048  70.8919015  11.2712793  57.6073521  71.7513481
  11.5635536  57.7120425  70.2696271  16.6461142  60.5020484  61.5968344
  16.5079040  60.6922080  60.6689534  16.2897361  61.2639867  62.0536396
   4.8103268  54.4878579  67.6765357   5.4502647  54.3467338  66.9788320
   3.9780799  54.2013092  67.3003959   5.5863572  63.7881010  63.7900349
   6.3804170  63.2931330  63.5882924   4.8755264  63.2598873  63.4268055
  10.4058416  66.1699105  68.1412717  10.4595439  66.7390041  68.9090433
   9.5373198  66.3400990  67.7766754   1.8946335  57.9324091  59.8660102
   0.9643923  57.8708547  60.0830064   1.9903807  57.4100044  59.0696743
   1.8131884  54.4578904  62.4538343   2.0738702  55.3724237  62.3447504
   2.6349057  53.9903347  62.6034956   3.2856810  55.8716661  69.6237168
   3.9579863  55.6634023  68.9749817   2.4586596  55.6738747  69.1842400
   9.1882382  52.4978602  71.6402829   8.5410297  53.1968552  71.5467305
   9.9583397  52.9314746  72.0079077   9.3646516  60.3359367  69.6999648
  10.2938576  60.4870527  69.5268616   8.9437546  60.4243388  68.8448295
   8.1634848  64.3610032  67.4698186   8.0245934  63.9928816  68.3424124
   7.3749444  64.8757671  67.2982144   8.7583000  69.4619128  58.8123723
   8.9334756  68.9907171  59.6269345   8.0715788  70.0884894  59.0404983
   9.7140063  63.7391634  64.8587024   9.3789896  63.6992404  65.7544674
   9.2144009  63.0736350  64.3857434   3.6884307  59.1459264  70.3839605
   3.5504105  58.4139503  70.9851144   4.5989230  59.0568164  70.1023793
  12.6499255  61.0847669  55.1324084  12.0328425  60.3594497  55.0357136
  12.1815743  61.8457029  54.7891158   6.3166608  58.8579224  69.8723285
   7.0266226  58.2172416  69.8309903   6.2735916  59.1092118  70.7949465
   5.0295542  55.8444441  71.6918924   4.4932899  55.3935180  72.3440520
   4.4412250  55.9790350  70.9489388   3.3244085  72.6108491  65.5863583
   3.5640683  73.2427015  66.2642601   2.4813282  72.2596531  65.8728942
   4.4397801  55.3033093  54.2545388   3.5627267  55.1821894  53.8907634
   4.9155554  54.5119171  54.0024276   7.8371947  68.4187613  67.9905087
   7.7642118  69.2242585  68.5024391   7.3949340  68.6179579  67.1653108
   7.6261727  67.6559383  61.5007908   6.8429249  68.1981063  61.5946133
   8.3254472  68.1733363  61.9002149  10.9358377  53.4654013  64.1442114
  11.4327076  52.7123975  63.8243184  10.1645358  53.5018329  63.5785323
  18.7888134  59.1694378  65.7860405  18.7778010  60.0519094  65.4154338
  17.9205514  58.8165929  65.5914942  10.2970631  68.3174447  70.1463245
  11.0098603  68.9521912  70.0739147   9.8060659  68.4138313  69.3303247
  12.0188157  62.2225700  61.7180537  11.0844436  62.3427162  61.5485241
  12.1964826  61.3198167  61.4540547   7.5193345  55.6071396  63.8713798
   7.1491133  55.0542436  64.5594704   8.0152438  55.0029529  63.3188798
  15.4060709  58.0643019  62.2530571  15.8721161  58.8971011  62.1790874
  15.8568209  57.5988001  62.9575830   5.3482544  66.0668891  70.9668816
   6.0492004  66.7005374  71.1198210   4.8777659  66.4083622  70.2064456
  13.3777372  50.4323606  66.2921473  12.4640451  50.6627833  66.4603680
  13.8070473  50.5162050  67.1435505  13.1483830  58.6213498  68.7921367
  12.4955280  58.8689406  68.1373819  13.5264210  57.8077636  68.4583844
  10.1091004  68.6573191  62.8949537  10.2913398  67.8394847  63.3577289
  10.9323990  68.8740884  62.4574427  10.4433169  67.5841376  60.1564585
  10.9720936  67.0733831  59.5434747  10.7061389  67.2683907  61.0210118
   9.1971403  59.3633309  75.2787404   8.5212040  59.2627439  75.9489779
  10.0199037  59.2072523  75.7423401   0.9450262  65.6005246  67.8999919
   1.5303699  64.8548934  68.0327823   0.7475101  65.9109202  68.7836583
   3.7988917  68.6356493  62.9162361   3.1299293  69.1202621  62.4326401
   3.6601787  68.8825714  63.8305740   7.9394186  70.6700237  69.5145020
   8.4912494  70.8331858  70.2794105   8.2800379  71.2604674  68.8425045
   2.9158679  53.0175386  70.1166904   2.9800006  53.8790217  69.7044302
   2.8525799  52.4049388  69.3839263   2.3910952  55.0898519  73.7639939
   3.0182990  54.7075596  74.3777463   1.5338871  54.8712721  74.1295631
  12.7905060  65.4961494  75.3693674  13.3344964  66.1091452  74.8748629
  12.2091905  66.0541073  75.8860687  11.0762573  68.6182212  66.5008702
  10.9513713  67.8171952  65.9919647  11.7341664  69.1128406  66.0122672
   2.6970741  54.9730945  65.6785842   1.9757327  55.5866912  65.5393315
   3.4863997  55.5088709  65.6002488  13.1397482  66.4191232  68.1288252
  12.1927817  66.2996583  68.0566579  13.4880255  65.5313730  68.2114513
   5.4997055  52.3085371  71.9526494   6.0231457  52.5547668  72.7152803
   5.2809388  53.1405406  71.5329631   0.8964336  54.5789046  59.8197619
   0.5677042  53.6986425  59.6372725   1.2503707  54.5236714  60.7074008
  10.1443915  66.2143948  64.3292604   9.9968877  65.2860656  64.5100174
  10.9697408  66.2364039  63.8449679   4.0106159  54.8662016  60.1873096
   4.3502232  55.3947937  59.4651705   4.4578280  55.2042422  60.9631663
   6.7049600  53.2499066  69.6376164   6.3646420  52.4506879  70.0396844
   5.9988606  53.5500777  69.0652998   7.3566072  50.3348379  68.0903487
   8.1792141  49.8608857  67.9682378   7.6004135  51.1138862  68.5902174
   5.9974306  53.3636637  58.3866389   6.7182669  53.7417890  57.8830106
   5.3739610  54.0825514  58.4901367  10.1405429  54.0681786  59.3224721
  10.3569044  54.9506424  59.0213550   9.6599496  53.6768000  58.5930363
   4.8804651  57.0267499  65.8995466   4.7349231  57.3407802  66.7919747
   4.4029854  57.6452400  65.3466365   6.7401033  54.0170047  65.9476356
   6.7262602  53.1211141  65.6108653   7.4573462  54.0240711  66.5814642
   8.5927164  54.4507388  67.9929483   8.3344942  55.3724458  67.9913813
   8.0612205  54.0537822  68.6829947   6.1437929  52.8984428  61.2163926
   6.2653841  51.9701074  61.4154813   5.8539972  52.9123114  60.3042241
   9.0129120  50.5839338  64.3530646   9.0350817  50.6478671  63.3982625
   9.4297179  49.7443847  64.5471152   8.0859997  68.2358718  71.5293674
   8.3947124  67.9907865  72.4016374   8.8835479  68.4405357  71.0412544
   8.1080609  70.3896628  63.7599051   7.6685600  69.8973007  64.4531907
   8.8588726  69.8469596  63.5191126   5.5554481  65.9334637  65.8321352
   4.9334491  65.2705342  65.5323580   6.2259348  65.9595769  65.1495000
   5.6279009  54.4116425  75.4253858   5.6767164  55.2878548  75.0431628
   6.1701523  53.8693818  74.8525502   5.1167988  64.4838560  59.3079813
   5.2656109  65.1674025  58.6546486   5.9234432  64.4643650  59.8229269
  13.5235492  57.7880943  73.3347031  14.4245355  57.6487407  73.0431028
  13.5983467  57.9535397  74.2745208   7.8578297  55.1647797  72.1800217
   6.9881607  55.4581363  71.9082805   8.0937778  55.7488242  72.9007481
  15.9837115  59.3479571  70.7309803  16.4591236  59.5407217  69.9228655
  15.0602680  59.4038757  70.4853187   2.8720621  60.5103738  60.3140882
   2.6266663  59.6066068  60.5121092   3.0416536  60.5120888  59.3720360
  10.5617331  51.3827414  69.6965637  11.0799275  52.1188441  69.3712126
  10.2072464  51.6891408  70.5312396   2.1416269  56.2432096  57.8127043
   1.4485514  56.3176450  57.1567079   1.8968021  55.4792439  58.3348560
  10.8129925  47.8027697  65.2166534  11.0931679  47.1350886  65.8426960
  11.5980532  47.9956792  64.7041198   8.6163394  66.9786691  56.7791560
   8.0437361  67.5976878  56.3262032   9.1896188  67.5286052  57.3131482
  14.6838784  56.2245331  68.9638109  15.6356207  56.3243428  68.9850333
  14.5142234  55.4323599  69.4736193  12.7053163  53.3100914  69.1497510
  12.1103095  53.5905927  68.4543999  12.4202860  53.7994815  69.9214251
  11.8360654  67.2623841  57.9100143  12.7691327  67.1969403  58.1133018
  11.7483866  68.0980108  57.4514675  17.1626862  59.4451451  68.0780409
  17.1303182  58.5067451  68.2640093  17.7727485  59.5235487  67.3446234
   9.0010192  58.3147503  54.1207613   9.9469297  58.1853712  54.1896031
   8.6224437  57.5762165  54.5977041  17.3121350  56.2362494  68.1238692
  16.7960399  55.4520951  67.9368621  18.1961299  55.9081211  68.2885211
  14.9732077  49.9803510  64.0834505  14.7756898  49.6718598  64.9677837
  15.5831782  50.7065148  64.2132434   8.8848885  62.3665250  75.5808270
   9.8051894  62.5443849  75.7748316   8.8498468  61.4221295  75.4287969
   7.1853110  56.2397480  54.0562498   6.2784565  55.9430593  54.1325212
   7.4629091  55.9427298  53.1896784   1.8810957  60.2766284  68.2231051
   2.0996967  61.2083392  68.2419085   2.2936731  59.9174259  69.0085855
   8.8015175  50.7834370  60.2106739   7.9915904  50.4381455  60.5861985
   9.4899592  50.4741913  60.7994351  10.7305724  49.8612416  61.8331036
  11.2836762  50.2807870  62.4921059  10.9675810  48.9348165  61.8753992
   6.7538823  55.8499490  77.6133800   6.6535550  56.7993847  77.5445891
   6.5360365  55.5217729  76.7409870   5.9551894  53.0984415  54.1974477
   6.8171058  53.4239313  54.4570294   6.1402238  52.3115911  53.6847543
  14.1084531  51.9712942  61.3409700  13.5283200  52.6297746  60.9587753
  13.8420463  51.1490286  60.9297118  12.5588097  51.3717999  63.5431020
  13.0587875  51.4834534  62.7345339  13.2023705  51.0679052  64.1831829
   6.6170093  59.2796629  76.4298861   6.1337175  60.0796989  76.6362750
   6.7031032  59.2904574  75.4766305   2.5443430  63.1701164  68.4667295
   3.4986684  63.1385106  68.3997227   2.3455954  62.7091787  69.2817521
   3.1342812  61.7402280  71.0338093   3.9535701  62.2346358  71.0572930
   3.4079620  60.8234248  71.0055660  12.8909409  54.1313032  60.3966048
  12.0035264  54.4162683  60.1786243  13.3063398  53.9706795  59.5493325
  16.2423945  54.1559553  64.1120388  17.0184335  54.6456005  64.3845004
  15.5172079  54.5817607  64.5692257  12.0352622  63.8957707  54.4914068
  12.7388472  64.1007709  55.1071724  11.3115271  64.4634469  54.7563152
  12.8650432  59.6467568  60.6116339  12.8085634  60.1036119  59.7723971
  13.4178775  58.8858252  60.4339181  16.6755238  55.4357300  61.4366458
  16.4192173  55.0353935  62.2674666  16.0508106  56.1501094  61.3116597
   4.0562785  69.6090100  65.6955936   3.9395169  70.5535533  65.5934626
   3.2355231  69.3063662  66.0841735  13.9439320  64.3340236  56.5412528
  14.7784923  63.9021434  56.3590003  13.7823662  64.1622249  57.4689423
  13.5985212  60.8372349  57.9068868  13.5434015  60.6716621  56.9657312
  12.9731267  61.5448382  58.0631057  10.9131119  63.1421261  77.2322431
  11.7822279  63.3161913  76.8709065  10.4337870  63.9615678  77.1098160
   6.9081337  50.3380458  57.4854186   6.8960007  51.2822298  57.6422457
   7.8004759  50.1550604  57.1913647   5.0817299  70.2618362  68.9111864
   5.9844546  70.2941972  69.2278359   4.8554669  69.3318813  68.9258200
   6.8370901  69.0149349  65.5721943   5.8866532  69.0151210  65.4586315
   7.1403387  68.2682083  65.0557977  10.7233457  46.9323235  61.7400123
   9.9565852  46.3781721  61.8856805  11.1344162  47.0045104  62.6014275
   2.7275218  53.2208031  75.8305304   3.5906679  52.8644835  76.0408629
   2.1540628  52.8821925  76.5180708  12.7864549  78.1523983  65.4010341
  13.5785840  77.8114808  64.9856641  13.0261199  78.2618958  66.3212495
  14.7455302  77.4132896  58.2727720  15.5186178  76.8661883  58.1340596
  15.0980701  78.2777146  58.4842181  16.5840345  78.7409279  71.4794619
  16.2930211  79.6454909  71.3641286  17.2197329  78.7825806  72.1938689
  14.9942712  74.8784491  64.5081117  14.0693208  74.7460705  64.7158809
  15.2427125  75.6578710  65.0051060  12.3551523  74.5217764  65.3424907
  12.4843904  74.7752243  66.2564318  11.6748974  75.1145472  65.0229562
  16.5251010  85.1915014  61.4415381  16.4475040  86.1422839  61.5203861
  15.9212653  84.8460887  62.0990307  11.3020948  71.9939777  65.3875949
  10.5120002  72.2497306  64.9116059  11.7932196  72.8088115  65.4927989
  13.2535694  72.3584357  62.3459426  12.4566857  72.4703051  62.8642921
  13.0261286  72.6971009  61.4800316   9.5858651  72.2470268  67.8190940
   9.8366690  73.1317278  68.0848516  10.1218200  72.0674869  67.0466031
  12.2518776  78.0672605  60.7348846  12.7643297  78.8615856  60.8854410
  12.9041489  77.3698896  60.6682447  14.0613661  81.1838362  62.8171599
  14.2380289  82.1056326  62.6292583  14.8570494  80.8696781  63.2465979
  15.1844976  82.7016535  68.8181941  15.7352401  82.5733599  68.0458935
  14.3456452  83.0011424  68.4676834  10.2167693  76.3961260  61.5108416
  11.0542915  76.8058268  61.2942124  10.3945961  75.4560702  61.4808610
  21.3985539  84.6231373  56.5976643  20.7247238  84.9263070  57.2061601
  21.7851361  85.4260454  56.2482100  10.2393864  73.7351975  62.1819150
  10.0418264  73.1421336  61.4570216   9.6840528  73.4304185  62.8995088
  12.7340090  73.2616009  59.8660102  11.8037678  73.2000464  60.0830064
  12.8297562  72.7391962  59.0696743  19.5976754  84.7911046  58.8123723
  19.7728510  84.3199089  59.6269345  18.9109542  85.4176812  59.0404983
  14.1637840  87.9400408  65.5863583  14.4034438  88.5718933  66.2642601
  13.3207036  87.5888448  65.8728942   6.7993695  75.4202170  64.3486895
   7.4864735  75.1063900  63.7607910   6.6441824  76.3243535  64.0754146
  11.6028417  70.3092367  68.7771919  11.5186606  69.7018036  68.0422329
  10.7811124  70.8001385  68.7781415  18.6765701  83.7479531  67.9905087
  18.6035873  84.5534502  68.5024391  18.2343095  83.9471497  67.1653108
  16.1876299  81.3960808  70.9668816  16.8885758  82.0297291  71.1198210
  15.7171414  81.7375540  70.2064456  11.7844017  80.9297163  67.8999919
  12.3697453  80.1840851  68.0327823  11.5868855  81.2401120  68.7836583
  14.6382672  83.9648411  62.9162361  13.9693047  84.4494538  62.4326401
  14.4995542  84.2117631  63.8305740   6.3761671  73.5002764  66.6204362
   6.4145771  72.9666354  67.4141480   5.8701964  72.9737969  66.0015339
  18.7787940  85.9992154  69.5145020  19.3306248  86.1623776  70.2794105
  19.1194134  86.5896592  68.8425045  13.7552434  68.3467304  70.1166904
  13.8193760  69.2082135  69.7044302  13.6919554  67.7341306  69.3839263
  10.0070249  72.2266866  59.6958293  10.3023690  71.3177544  59.6425347
   9.1058285  72.2054605  59.3739296  13.5364496  70.3022862  65.6785842
  12.8151082  70.9158830  65.5393315  14.3257752  70.8380627  65.6002488
  11.7358091  69.9080963  59.8197619  11.4070797  69.0278342  59.6372725
  12.0897461  69.8528632  60.7074008  24.3767107  82.8850092  60.7719568
  24.5503985  82.3196515  60.0193421  24.8695999  83.6850987  60.5899058
  10.1944067  74.8964761  68.8383127   9.6497535  75.6724569  68.9703401
  11.0723417  75.2435566  68.6802249  10.9810089  74.0234658  71.7313284
  10.2391825  74.1717293  72.3177914  10.6602833  74.2842923  70.8680033
  18.9474364  85.7188546  63.7599051  18.5079354  85.2264924  64.4531907
  19.6982481  85.1761513  63.5191126  11.4266703  81.9100086  63.7623679
  12.2524723  81.6103858  63.3822322  11.0760755  81.1407709  64.2113467
   9.6275308  79.8286413  64.7212612   8.7907216  79.4008587  64.5396614
   9.5998953  80.0218856  65.6583403  15.9561743  79.8130478  59.3079813
  16.1049863  80.4965942  58.6546486  16.7628186  79.7935568  59.8229269
  13.7114376  75.8395656  60.3140882  13.4660418  74.9357986  60.5121092
  13.8810290  75.8412806  59.3720360  12.9810023  71.5724013  57.8127043
  12.2879268  71.6468368  57.1567079  12.7361775  70.8084357  58.3348560
  19.4557148  82.3078608  56.7791560  18.8831115  82.9268796  56.3262032
  20.0289942  82.8577970  57.3131482  22.6754408  82.5915759  57.9100143
  23.6085081  82.5261320  58.1133018  22.5877621  83.4272025  57.4514675
   8.9424804  72.8895761  64.5061544   8.6227589  72.0361069  64.2135918
   8.3958233  73.1044339  65.2619512  12.7204712  75.6058202  68.2231051
  12.9390722  76.5375310  68.2419085  13.1330486  75.2466176  69.0085855
   8.8113064  76.5098672  66.4754666   8.1176536  76.0952625  65.9624620
   9.5586055  76.5519209  65.8788085  10.7249807  76.4416926  64.3520681
  10.7020495  76.5404614  63.4002564  11.0350443  77.2882077  64.6737847
  13.3837185  78.4993081  68.4667295  14.3380438  78.4677024  68.3997227
  13.1849708  78.0383705  69.2817521  13.9736567  77.0694197  71.0338093
  14.7929456  77.5638276  71.0572930  14.2473375  76.1526165  71.0055660
  11.7387414  84.0412701  65.4837493  11.6041882  83.2813102  64.9175491
  11.3219476  84.7653601  65.0166282  14.8956539  84.9382018  65.6955936
  14.7788924  85.8827450  65.5934626  14.0748986  84.6355579  66.0841735
   9.2271481  71.4032331  71.7330290   9.8730345  70.8931285  72.2217515
   9.0188632  72.1401013  72.3073715  15.9211054  85.5910280  68.9111864
  16.8238300  85.6233890  69.2278359  15.6948424  84.6610731  68.9258200
  17.6764656  84.3441266  65.5721943  16.7260287  84.3443128  65.4586315
  17.9797142  83.5974001  65.0557977  33.4117349  90.1801805  66.6367705
  34.0495759  90.0608552  65.9331045  33.2938192  91.1282649  66.6955657
  30.2207055  90.1329233  66.5729230  29.8825567  90.0170297  65.6849765
  31.0896824  89.7320398  66.5530236  26.0793871  91.9864709  62.5626121
  25.5158736  91.8954646  61.7942409  25.9646266  91.1664614  63.0428613
  30.7026838  91.2864084  72.5315435  30.6915479  90.8916883  71.6595939
  30.8647478  90.5530157  73.1249207  23.6258303  93.4815901  65.4010341
  24.4179595  93.1406725  64.9856641  23.8654953  93.5910876  66.3212495
  31.6593430  95.6535677  57.8740586  31.0081410  96.2389757  57.4874600
  32.4537793  96.1841872  57.9335623  25.5849057  92.7424814  58.2727720
  26.3579933  92.1953801  58.1340596  25.9374456  93.6069063  58.4842181
  27.4234100  94.0701196  71.4794619  27.1323965  94.9746827  71.3641286
  28.0591084  94.1117724  72.1938689  28.3490306  91.4478045  68.0695979
  28.9453879  91.2234067  67.3552942  28.4065278  90.7062790  68.6721427
  27.9215335  88.9017480  55.9046170  28.1740855  88.3799001  55.1429633
  26.9839894  88.7383626  56.0072854  32.9658618  87.9053258  63.7120913
  33.7521707  87.4872682  63.3611330  33.2297322  88.8099351  63.8802562
  33.1368695  93.3426109  58.4109570  32.5014528  93.4160735  59.1230475
  32.8066101  93.9319708  57.7328649  38.3667045  87.8428492  64.6153892
  39.0992217  87.2727708  64.8491721  37.6106400  87.4550092  65.0560397
  27.6411624  90.8045586  58.1070545  27.5247882  90.1290489  58.7751629
  27.7513883  90.3177960  57.2902698  29.9843164  90.2655733  61.8117234
  29.6201372  89.7386354  62.5230156  30.8410280  89.8754202  61.6383720
  35.8892465  81.5550066  69.0748500  35.5575790  82.4245477  68.8509715
  35.2938078  81.2386350  69.7542531  29.6248651  85.2945633  56.8078583
  29.7923054  86.1625869  57.1749054  29.4345820  85.4572915  55.8839872
  32.3823985  93.7562612  68.4744413  32.0824708  94.6587651  68.3660220
  32.0375044  93.4894795  69.3265566  25.8336466  90.2076409  64.5081117
  24.9086963  90.0752623  64.7158809  26.0820879  90.9870628  65.0051060
  35.7821128  86.2745152  66.1541850  34.8738006  86.2060560  65.8600611
  35.7308724  86.7517097  66.9823676  29.6037872  87.7503290  57.7925250
  29.4837497  88.1960341  58.6310730  28.9090461  88.0988608  57.2338788
  23.1945277  89.8509682  65.3424907  23.3237658  90.1044161  66.2564318
  22.5142728  90.4437390  65.0229562  29.8561994  87.6934798  74.0976748
  29.0795328  88.2528718  74.0879612  30.4952557  88.1791580  74.6191618
  37.6482775  84.4761590  67.9319724  37.0057155  84.7694123  67.2859519
  37.1437703  84.3614511  68.7372921  35.3022938  88.2224764  58.6205584
  36.2140795  88.4552150  58.4453281  34.7932586  88.8061808  58.0580662
  28.1108366  90.5020251  73.6594715  28.8523051  91.0405295  73.3829538
  27.4045352  91.1286540  73.8166266  33.5863706  92.6449391  72.2566876
  33.9947062  92.2031802  71.5121509  32.8640968  92.0702019  72.5101069
  29.9394776  87.5821998  69.6300433  30.7855971  88.0061412  69.7735082
  29.8793414  86.9255622  70.3238996  33.9092521  93.2050582  66.0119165
  33.2801383  93.3696296  65.3095233  33.5218183  93.6192192  66.7830129
  37.7881753  94.1405020  63.3663529  37.1032791  94.5203921  62.8160562
  37.8725602  94.7500346  64.0995477  33.0894221  85.2426366  71.2881607
  32.8455153  85.9968427  70.7515882  33.3654152  85.6211714  72.1228854
  35.0432684  91.7864979  69.9658872  35.2549579  92.4296739  69.2893253
  34.9962433  90.9527295  69.4980802  32.6458913  84.3982799  66.8695444
  31.7843392  84.6964053  67.1612182  32.6721348  84.6153198  65.9376477
  29.4620483  92.9424990  63.2769250  29.9258828  93.2212693  62.4873873
  29.1977281  92.0408435  63.0942341  26.3544564  92.4896472  66.2149013
  26.9245921  92.9183740  65.5766498  26.9452676  92.2079056  66.9133199
  28.3989369  89.0648142  60.0858815  29.1013412  89.5169186  60.5532742
  28.0669997  88.4231961  60.7138708  26.8469730  87.6559899  74.4610025
  26.2168391  88.3376180  74.6945421  26.7405818  87.5442981  73.5163163
  22.1414703  87.3231695  65.3875949  21.3513757  87.5789224  64.9116059
  22.6325950  88.1380033  65.4927989  36.1578512  94.6636934  68.1381230
  36.9795956  94.2617122  67.8563911  36.1540915  94.5605168  69.0897345
  24.0929448  87.6876274  62.3459426  23.2960611  87.7994969  62.8642921
  23.8655040  88.0262927  61.4800316  29.9235116  94.2120978  70.2941940
  29.9879548  94.6741385  71.1300112  29.2146040  93.5818342  70.4224250
  20.4252406  87.5762186  67.8190940  20.6760444  88.4609195  68.0848516
  20.9611954  87.3966787  67.0466031  44.2484505  91.0075683  64.4866201
  43.4948214  90.4383081  64.3310206  44.3832046  90.9738347  65.4336836
  29.6383133  95.8789085  60.1620920  29.5028808  96.7240621  60.5905768
  30.1792946  96.0808363  59.3986854  26.1250473  81.9580665  76.8235276
  25.7317419  81.4046863  77.4982920  26.9416613  82.2691243  77.2141793
  23.0912531  93.3964523  60.7348846  23.6037051  94.1907773  60.8854410
  23.7435244  92.6990814  60.6682447  29.0418434  83.3738544  74.4155532
  29.7828147  83.9745697  74.3359995  29.2736357  82.6316182  73.8573575
  24.1859772  88.5594911  72.6933762  24.0713287  87.6580168  72.9940861
  23.3304290  88.8058608  72.3418579  31.2651610  96.5012652  74.2921263
  30.8215464  95.7149030  73.9742167  31.9268823  96.6891802  73.6265153
  33.3632848  96.7815451  72.3202664  33.3451323  97.6024333  71.8282933
  34.2852768  96.6569527  72.5452805  29.8205902  94.2959581  73.1626172
  30.3534239  93.5347869  72.9325480  29.2919983  94.0033233  73.9050327
  21.0561447  91.7253177  61.5108416  21.8936669  92.1350186  61.2942124
  21.2339715  90.7852620  61.4808610  32.9525880  89.3928258  57.1992249
  32.4372503  90.1632863  57.4380636  32.6803188  88.7193394  57.8225311
  30.5372991  84.2377959  62.2577487  29.6814587  83.8484809  62.0783126
  30.9499942  84.3169920  61.3977273  32.0672137  81.7724302  66.6569047
  31.5636933  81.7354437  65.8436852  32.3602744  82.6817045  66.7165704
  37.9260154  92.1460613  59.1345423  37.1489596  91.8071772  58.6900585
  38.6051635  92.1513236  58.4600388  32.7412183  87.2655350  59.0252030
  32.4362318  87.5801499  59.8762173  33.6942625  87.3436770  59.0679363
  31.1858615  93.4245573  60.6744984  30.6579976  92.6898333  60.3618222
  30.6846117  94.2020250  60.4284953  36.1651461  91.6194594  65.7912031
  35.5075135  92.3093855  65.8792159  36.9691860  92.0091026  66.1346017
  34.9756919  89.9738967  63.8415972  35.4888801  90.6068958  64.3437682
  35.6258143  89.3740162  63.4759332  26.2446929  86.1169701  57.0547481
  25.4084242  86.4544387  57.3756756  26.1051699  85.9818681  56.1174618
  29.3311215  91.2425784  53.6779957  28.4238277  91.0115037  53.8771106
  29.8282247  90.4463403  53.8653939  31.4537750  87.4488422  66.0874313
  30.5360312  87.6703369  65.9296001  31.8697894  87.5234733  65.2286020
  32.2372798  88.8479838  61.2176993  32.9844617  89.3601235  60.9084115
  32.5064388  88.5263891  62.0781387  30.5099448  91.3438379  58.2003947
  29.6010667  91.0597411  58.2976417  30.5394532  91.7637457  57.3407254
  35.7418716  94.9544968  61.9695115  35.2881043  94.1135878  62.0260305
  35.1112682  95.5906366  62.3069895  34.6851635  85.8836954  63.1995782
  33.9474392  85.3714340  63.5306025  34.9378409  85.4437336  62.3879059
  34.1851655  96.7921465  62.9044933  34.4774629  97.3526522  62.1857299
  34.6950275  97.0850026  63.6598092  21.0787619  89.0643893  62.1819150
  20.8812018  88.4713253  61.4570216  20.5234283  88.7596103  62.8995088
  29.0584342  88.9566999  64.3013743  29.1132952  88.0040836  64.2256219
  28.2475544  89.1126438  64.7855041  30.2075536  92.8847122  55.5392026
  29.7694966  92.1682981  55.0797663  30.9485977  93.1123237  54.9777117
  26.9976702  87.5744059  62.0604122  26.1844568  87.8738229  62.4669314
  27.4935696  87.1799748  62.7778604  29.1485280  97.5701816  63.9938386
  29.1061459  97.7962662  63.0646918  30.0647979  97.3365190  64.1424187
  32.5950914  88.0385883  70.8919015  32.9500302  88.2657357  71.7513481
  33.2423045  88.3704260  70.2696271  38.3248651  91.1604319  61.5968344
  38.1866549  91.3505915  60.6689534  37.9684870  91.9223702  62.0536396
  38.3518030  93.2280846  66.6079616  38.7854537  93.1356135  67.4562670
  39.0649611  93.2038347  65.9699632  27.2651081  94.4464845  63.7900349
  28.0591679  93.9515165  63.5882924  26.5542773  93.9182708  63.4268055
  32.0845925  96.8282940  68.1412717  32.1382948  97.3973877  68.9090433
  31.2160707  96.9984825  67.7766754  23.5733844  88.5907927  59.8660102
  22.6431432  88.5292382  60.0830064  23.6691316  88.0683879  59.0696743
  23.4919393  85.1162739  62.4538343  23.7526211  86.0308073  62.3447504
  24.3136566  84.6487182  62.6034956  24.9644319  86.5300497  69.6237168
  25.6367372  86.3217859  68.9749817  24.1374105  86.3322583  69.1842400
  39.2133580  93.2704547  69.1412501  39.4069470  94.1750357  69.3871776
  39.1134198  92.8111966  69.9751086  30.8669891  83.1562438  71.6402829
  30.2197806  83.8552387  71.5467305  31.6370906  83.5898581  72.0079077
  34.2748689  93.4211290  74.7153382  34.1234195  93.1921841  73.7983466
  34.2653368  94.3781891  74.7284727  31.0434025  90.9943202  69.6999648
  31.9726085  91.1454362  69.5268616  30.6225055  91.0827223  68.8448295
  29.8422357  95.0193867  67.4698186  29.7033443  94.6512651  68.3424124
  29.0536953  95.5341506  67.2982144  31.3927572  94.3975470  64.8587024
  31.0577405  94.3576240  65.7544674  30.8931518  93.7320185  64.3857434
  25.3671816  89.8043100  70.3839605  25.2291614  89.0723338  70.9851144
  26.2776739  89.7152000  70.1023793  34.3286764  91.7431504  55.1324084
  33.7115934  91.0178332  55.0357136  33.8603252  92.5040864  54.7891158
  27.9954117  89.5163059  69.8723285  28.7053735  88.8756251  69.8309903
  27.9523425  89.7675954  70.7949465  35.9840895  96.4530412  72.7929864
  35.9253441  95.7689632  72.1260447  36.3860414  97.1949402  72.3410490
  26.7083051  86.5028277  71.6918924  26.1720408  86.0519015  72.3440520
  26.1199759  86.6374186  70.9489388  26.1185310  85.9616928  54.2545388
  25.2414776  85.8405729  53.8907634  26.5943063  85.1703006  54.0024276
  35.9858303  94.4169996  71.0243844  35.0985081  94.0795918  71.1470242
  36.5556854  93.6853027  71.2612609  17.6387450  90.7494088  64.3486895
  18.3258490  90.4355818  63.7607910  17.4835578  91.6535453  64.0754146
  22.4422172  85.6384284  68.7771919  22.3580361  85.0309954  68.0422329
  21.6204878  86.1293303  68.7781415  32.6145886  84.1237848  64.1442114
  33.1114585  83.3707810  63.8243184  31.8432867  84.1602165  63.5785323
  40.4675643  89.8278214  65.7860405  40.4565519  90.7102929  65.4154338
  39.5993023  89.4749764  65.5914942  31.9758139  98.9758283  70.1463245
  32.6886112  99.6105747  70.0739147  31.4848168  99.0722149  69.3303247
  33.6975666  92.8809535  61.7180537  32.7631945  93.0010998  61.5485241
  33.8752335  91.9782002  61.4540547  37.0848218  88.7226855  62.2530571
  37.5508670  89.5554846  62.1790874  37.5355718  88.2571836  62.9575830
  27.0270053  96.7252726  70.9668816  27.7279513  97.3589209  71.1198210
  26.5565168  97.0667458  70.2064456  35.1524449  95.0670676  59.2516723
  35.4284293  94.9527270  60.1610597  34.2828948  94.6688161  59.2128896
  35.0564880  81.0907442  66.2921473  34.1427960  81.3211668  66.4603680
  35.4857982  81.1745886  67.1435505  34.8271339  89.2797333  68.7921367
  34.1742789  89.5273241  68.1373819  35.2051719  88.4661472  68.4583844
  31.7878513  99.3157027  62.8949537  31.9700907  98.4978683  63.3577289
  32.6111499  99.5324719  62.4574427  32.1220678  98.2425212  60.1564585
  32.6508445  97.7317666  59.5434747  32.3848898  97.9267742  61.0210118
  30.8758912  90.0217145  75.2787404  30.1999549  89.9211274  75.9489779
  31.6986546  89.8656358  75.7423401  17.2155426  88.8294681  66.6204362
  17.2539525  88.2958272  67.4141480  16.7095719  88.3029887  66.0015339
  24.0698461  85.7482354  73.7639939  24.6970499  85.3659432  74.3777463
  23.2126380  85.5296556  74.1295631  34.4692569  96.1545329  75.3693674
  35.0132473  96.7675288  74.8748629  33.8879414  96.7124908  75.8860687
  20.8464003  87.5558783  59.6958293  21.1417444  86.6469462  59.6425347
  19.9452039  87.5346523  59.3739296  32.7550082  99.2766048  66.5008702
  32.6301222  98.4755787  65.9919647  33.4129173  99.7712241  66.0122672
  34.8184991  97.0775068  68.1288252  33.8715326  96.9580419  68.0566579
  35.1667764  96.1897566  68.2114513  27.1784564  82.9669207  71.9526494
  27.7018966  83.2131503  72.7152803  26.9596897  83.7989241  71.5329631
  22.5751845  85.2372881  59.8197619  22.2464551  84.3570260  59.6372725
  22.9291216  85.1820550  60.7074008  31.8231424  96.8727784  64.3292604
  31.6756386  95.9444491  64.5100174  32.6484917  96.8947875  63.8449679
  25.6893668  85.5245851  60.1873096  26.0289741  86.0531772  59.4651705
  26.1365789  85.8626257  60.9631663  35.4265546  97.6956343  65.4157477
  36.3512093  97.4899204  65.2781928  35.2580849  97.4472744  66.3246818
  28.3837109  83.9082902  69.6376164  28.0433929  83.1090715  70.0396844
  27.6776115  84.2084612  69.0652998  27.6761815  84.0220472  58.3866389
  28.3970178  84.4001725  57.8830106  27.0527119  84.7409349  58.4901367
  31.8192938  84.7265621  59.3224721  32.0356553  85.6090259  59.0213550
  31.3387005  84.3351835  58.5930363  26.5592160  87.6851335  65.8995466
  26.4136740  87.9991638  66.7919747  26.0817363  88.3036235  65.3466365
  30.2714673  85.1091223  67.9929483  30.0132451  86.0308294  67.9913813
  29.7399714  84.7121657  68.6829947  35.2160862  98.2142010  60.7719568
  35.3897739  97.6488432  60.0193421  35.7089753  99.0142905  60.5899058
  21.0337822  90.2256679  68.8383127  20.4891290  91.0016487  68.9703401
  21.9117172  90.5727484  68.6802249  27.8225438  83.5568263  61.2163926
  27.9441350  82.6284909  61.4154813  27.5327481  83.5706949  60.3042241
  30.6916629  81.2423173  64.3530646  30.7138326  81.3062506  63.3982625
  31.1084688  80.4027682  64.5471152  41.0700253  90.9778433  62.3909868
  41.5131399  90.2285758  61.9928991  40.1926763  90.9688569  62.0083600
  36.2036034  97.5308774  57.8716467  36.8986939  98.1515467  58.0903781
  36.5459185  96.6804126  58.1468845  21.8203844  89.3526575  71.7313284
  21.0785580  89.5009211  72.3177914  21.4996588  89.6134841  70.8680033
  38.1027458  94.9808480  59.4003797  38.6278782  95.3195753  58.6753117
  38.0149810  94.0455495  59.2166932  27.2341990  96.5918472  65.8321352
  26.6122000  95.9289177  65.5323580  27.9046857  96.6179604  65.1495000
  20.4669062  95.1578331  64.7212612  19.6300971  94.7300505  64.5396614
  20.4392708  95.3510774  65.6583403  27.3066518  85.0700260  75.4253858
  27.3554673  85.9462383  75.0431628  27.8489032  84.5277653  74.8525502
  37.7921364  95.6141384  74.7054995  37.0016907  95.5965522  74.1659495
  37.5554718  96.1529677  75.4604032  37.9119239  92.4633850  72.0187724
  37.9617244  92.2983857  72.9603247  37.8033162  91.5961109  71.6285605
  26.7955497  95.1422396  59.3079813  26.9443618  95.8257860  58.6546486
  27.6021941  95.1227486  59.8229269  35.2023001  88.4464778  73.3347031
  36.1032864  88.3071243  73.0431028  35.2770976  88.6119233  74.2745208
  29.5365806  85.8231633  72.1800217  28.6669116  86.1165199  71.9082805
  29.7725287  86.4072078  72.9007481  39.4137435  94.8830791  72.2629745
  39.1222244  95.2460772  73.0993206  38.8009567  94.1697800  72.0843078
  40.6133118  92.4483671  64.7832316  41.4480009  92.8873475  64.9469876
  40.7492247  91.9722324  63.9640561  37.6624624  90.0063406  70.7309803
  38.1378745  90.1991052  69.9228655  36.7390189  90.0622592  70.4853187
  24.5508130  91.1687573  60.3140882  24.3054172  90.2649903  60.5121092
  24.7204045  91.1704724  59.3720360  32.2404840  82.0411250  69.6965637
  32.7586784  82.7772277  69.3712126  31.8859973  82.3475243  70.5312396
  23.8203778  86.9015931  57.8127043  23.1273023  86.9760286  57.1567079
  23.5755530  86.1376274  58.3348560  30.2950903  97.6370526  56.7791560
  29.7224870  98.2560713  56.3262032  30.8683697  98.1869888  57.3131482
  36.3626293  86.8829166  68.9638109  37.3143716  86.9827264  68.9850333
  36.1929743  86.0907435  69.4736193  34.3840672  83.9684749  69.1497510
  33.7890604  84.2489762  68.4543999  34.0990369  84.4578650  69.9214251
  33.5148163  97.9207676  57.9100143  34.4478836  97.8553238  58.1133018
  33.4271375  98.7563943  57.4514675  36.1436179  97.2373547  54.8704090
  36.0649811  96.9033410  55.7639848  36.9645846  97.7295314  54.8695562
  38.8414370  90.1035286  68.0780409  38.8090691  89.1651287  68.2640093
  39.4514994  90.1819323  67.3446234  30.6797701  88.9731339  54.1207613
  31.6256806  88.8437547  54.1896031  30.3011946  88.2346001  54.5977041
  38.9908859  86.8946329  68.1238692  38.4747908  86.1104786  67.9368621
  39.8748807  86.5665046  68.2885211  36.6519586  80.6387345  64.0834505
  36.4544407  80.3302433  64.9677837  37.2619291  81.3648984  64.2132434
  44.6590920  91.1651293  67.2186445  45.3894309  90.9036581  67.7794149
  44.0497866  90.4280015  67.2588513  42.7406217  89.3059155  67.8160897
  42.0139381  89.1715120  67.2077388  42.3253504  89.6135984  68.6217615
  30.5636394  93.0249085  75.5808270  31.4839403  93.2027684  75.7748316
  30.5285977  92.0805130  75.4287969  28.8640619  86.8981315  54.0562498
  27.9572074  86.6014428  54.1325212  29.1416600  86.6011133  53.1896784
  19.7818559  88.2187679  64.5061544  19.4621343  87.3652987  64.2135918
  19.2351987  88.4336257  65.2619512  23.5598466  90.9350120  68.2231051
  23.7784476  91.8667227  68.2419085  23.9724240  90.5758094  69.0085855
  28.4326332  86.5083325  77.6133800  28.3323059  87.4577682  77.5445891
  28.2147874  86.1801564  76.7409870  27.6339403  83.7568250  54.1974477
  28.4958567  84.0823149  54.4570294  27.8189747  82.9699746  53.6847543
  19.6506819  91.8390590  66.4754666  18.9570290  91.4244543  65.9624620
  20.3979810  91.8811127  65.8788085  35.7872040  82.6296777  61.3409700
  35.2070709  83.2881581  60.9587753  35.5207972  81.8074122  60.9297118
  28.2957602  89.9380464  76.4298861  27.8124684  90.7380824  76.6362750
  28.3818541  89.9488409  75.4766305  21.5643561  91.7708844  64.3520681
  21.5414250  91.8696531  63.4002564  21.8744198  92.6173995  64.6737847
  24.2230939  93.8284999  68.4667295  25.1774193  93.7968941  68.3997227
  24.0243463  93.3675623  69.2817521  24.8130321  92.3986115  71.0338093
  25.6323210  92.8930194  71.0572930  25.0867129  91.4818083  71.0055660
  34.5696918  84.7896867  60.3966048  33.6822773  85.0746518  60.1786243
  34.9850907  84.6290631  59.5493325  37.9211454  84.8143388  64.1120388
  38.6971844  85.3039841  64.3845004  37.1959588  85.2401442  64.5692257
  40.3584012  85.5271007  65.1694328  40.9528503  85.2866743  64.4587637
  40.4310596  84.8078138  65.7967865  33.7140131  94.5541542  54.4914068
  34.4175981  94.7591544  55.1071724  32.9902780  95.1218304  54.7563152
  34.5437941  90.3051403  60.6116339  34.4873143  90.7619955  59.7723971
  35.0966284  89.5442088  60.4339181  38.3542747  86.0941135  61.4366458
  38.0979682  85.6937771  62.2674666  37.7295615  86.8084929  61.3116597
  42.6655085  88.8337208  63.9437749  42.1054643  88.9030398  64.7169312
  42.0598588  88.6578193  63.2237246  35.6226828  94.9924071  56.5412528
  36.4572432  94.5605270  56.3590003  35.4611171  94.8206085  57.4689423
  35.2772721  91.4956184  57.9068868  35.2221524  91.3300456  56.9657312
  34.6518776  92.2032217  58.0631057  20.0665236  86.7324249  71.7330290
  20.7124099  86.2223203  72.2217515  19.8582387  87.4692930  72.3073715
  32.5918628  93.8005096  77.2322431  33.4609787  93.9745749  76.8709065
  32.1125379  94.6199513  77.1098160  24.4062727  83.8791866  75.8305304
  25.2694188  83.5228671  76.0408629  23.8328137  83.5405761  76.5180708
  49.2060799 103.1720409  64.6153892  49.9385971 102.6019626  64.8491721
  48.4500155 102.7842010  65.0560397  46.7286220  96.8841983  69.0748500
  46.3969544  97.7537394  68.8509715  46.1331833  96.5678267  69.7542531
  40.4642406 100.6237551  56.8078583  40.6316808 101.4917787  57.1749054
  40.2739575 100.7864832  55.8839872  46.6214883 101.6037070  66.1541850
  45.7131760 101.5352478  65.8600611  46.5702479 102.0809015  66.9823676
  48.4876529  99.8053508  67.9319724  47.8450910 100.0986041  67.2859519
  47.9831458  99.6906428  68.7372921  46.1416693 103.5516681  58.6205584
  47.0534549 103.7844068  58.4453281  45.6326340 104.1353725  58.0580662
  43.9287976 100.5718284  71.2881607  43.6848908 101.3260345  70.7515882
  44.2047906 100.9503632  72.1228854  43.4852668  99.7274717  66.8695444
  42.6237147 100.0255971  67.1612182  43.5115102  99.9445116  65.9376477
  55.0878260 106.3367600  64.4866201  54.3341968 105.7674998  64.3310206
  55.2225801 106.3030265  65.4336836  36.9644227  97.2872583  76.8235276
  36.5711173  96.7338781  77.4982920  37.7810368  97.5983161  77.2141793
  39.8812188  98.7030462  74.4155532  40.6221902  99.3037615  74.3359995
  40.1130111  97.9608099  73.8573575  43.8269351  94.7311565  68.6919814
  43.4833621  95.6213206  68.6158925  44.1948314  94.5413222  67.8289399
  41.3766745  99.5669876  62.2577487  40.5208341  99.1776727  62.0783126
  41.7893697  99.6461837  61.3977273  42.9065892  97.1016220  66.6569047
  42.4030687  97.0646355  65.8436852  43.1996499  98.0108962  66.7165704
  39.1508778  97.1854949  65.6635229  40.0161774  96.9897758  65.3041118
  39.2186287  96.9565301  66.5904586  43.5805937 102.5947268  59.0252030
  43.2756073 102.9093417  59.8762173  44.5336379 102.6728688  59.0679363
  36.7571097  99.4157157  63.0351596  37.3314849  99.1932339  62.3024789
  37.3442079  99.4845852  63.7880197  39.0593764  96.2898406  61.7626665
  38.4058177  95.9747423  61.1383280  39.0174239  95.6674147  62.4886488
  45.5245390 101.2128872  63.1995782  44.7868146 100.7006258  63.5306025
  45.7772163 100.7729253  62.3879059  45.6257017  93.9905124  63.7937552
  45.9315894  93.1302487  63.5063467  46.3509622  94.5822744  63.5936546
  43.4344668 103.3677801  70.8919015  43.7894056 103.5949274  71.7513481
  44.0816800 103.6996178  70.2696271  37.3284531 100.4754332  67.6765357
  37.9683911 100.3343091  66.9788320  36.4962062 100.1888846  67.3003959
  41.7063645  98.4854355  71.6402829  41.0591560  99.1844305  71.5467305
  42.4764661  98.9190499  72.0079077  43.4539640  99.4529766  64.1442114
  43.9508340  98.6999728  63.8243184  42.6826622  99.4894082  63.5785323
  51.3069398 105.1570131  65.7860405  51.2959274 106.0394847  65.4154338
  50.4386777 104.8041682  65.5914942  40.0374609 101.5947149  63.8713798
  39.6672396 101.0418189  64.5594704  40.5333701 100.9905282  63.3188798
  47.9241972 104.0518772  62.2530571  48.3902424 104.8846764  62.1790874
  48.3749473 103.5863754  62.9575830  45.8958635  96.4199359  66.2921473
  44.9821715  96.6503586  66.4603680  46.3251736  96.5037803  67.1435505
  35.4339943  99.0051139  70.1166904  35.4981269  99.8665970  69.7044302
  35.3707063  98.3925141  69.3839263  38.0178318  98.2961124  71.9526494
  38.5412720  98.5423421  72.7152803  37.7990652  99.1281159  71.5329631
  39.2230863  99.2374819  69.6376164  38.8827684  98.4382632  70.0396844
  38.5169870  99.5376530  69.0652998  39.8747335  96.3224132  68.0903487
  40.6973405  95.8484610  67.9682378  40.1185399  97.1014615  68.5902174
  38.5155570  99.3512390  58.3866389  39.2363932  99.7293643  57.8830106
  37.8920874 100.0701267  58.4901367  42.6586693 100.0557539  59.3224721
  42.8750307 100.9382177  59.0213550  42.1780760  99.6643753  58.5930363
  39.2582297 100.0045800  65.9476356  39.2443866  99.1086894  65.6108653
  39.9754725 100.0116464  66.5814642  41.1108428 100.4383141  67.9929483
  40.8526205 101.3600211  67.9913813  40.5793468 100.0413575  68.6829947
  38.6619193  98.8860181  61.2163926  38.7835104  97.9576827  61.4154813
  38.3721235  98.8998867  60.3042241  41.5310383  96.5715091  64.3530646
  41.5532080  96.6354424  63.3982625  41.9478442  95.7319600  64.5471152
  51.9094008 106.3070351  62.3909868  52.3525154 105.5577676  61.9928991
  51.0320518 106.2980487  62.0083600  38.1460272 100.3992178  75.4253858
  38.1948428 101.2754301  75.0431628  38.6882787  99.8569571  74.8525502
  46.0416756 103.7756696  73.3347031  46.9426618 103.6363160  73.0431028
  46.1164730 103.9411150  74.2745208  40.3759561 101.1523550  72.1800217
  39.5062870 101.4457116  71.9082805  40.6119041 101.7363995  72.9007481
  43.0798595  97.3703167  69.6965637  43.5980539  98.1064194  69.3712126
  42.7253727  97.6767161  70.5312396  43.3311189  93.7903450  65.2166534
  43.6112943  93.1226639  65.8426960  44.1161796  93.9832545  64.7041198
  47.2020047 102.2121084  68.9638109  48.1537470 102.3119182  68.9850333
  47.0323498 101.4199352  69.4736193  45.2234427  99.2976667  69.1497510
  44.6284359  99.5781680  68.4543999  44.9384123  99.7870568  69.9214251
  49.6808125 105.4327204  68.0780409  49.6484445 104.4943204  68.2640093
  50.2908749 105.5111240  67.3446234  49.8302613 102.2238247  68.1238692
  49.3141662 101.4396704  67.9368621  50.7142562 101.8956964  68.2885211
  47.4913340  95.9679263  64.0834505  47.2938162  95.6594351  64.9677837
  48.1013046  96.6940901  64.2132434  55.4984675 106.4943210  67.2186445
  56.2288063 106.2328499  67.7794149  54.8891620 105.7571932  67.2588513
  53.5799972 104.6351073  67.8160897  52.8533136 104.5007038  67.2077388
  53.1647259 104.9427902  68.6217615  39.7034373 102.2273233  54.0562498
  38.7965828 101.9306346  54.1325212  39.9810354 101.9303051  53.1896784
  41.3196439  96.7710123  60.2106739  40.5097167  96.4257208  60.5861985
  42.0080856  96.4617666  60.7994351  43.2486987  95.8488169  61.8331036
  43.8018026  96.2683623  62.4921059  43.4857073  94.9223918  61.8753992
  38.4733158  99.0860168  54.1974477  39.3352322  99.4115066  54.4570294
  38.6583502  98.2991664  53.6847543  46.6265794  97.9588695  61.3409700
  46.0464463  98.6173499  60.9587753  46.3601727  97.1366039  60.9297118
  45.0769360  97.3593752  63.5431020  45.5769139  97.4710287  62.7345339
  45.7204968  97.0554805  64.1831829  45.4090672 100.1188785  60.3966048
  44.5216527 100.4038436  60.1786243  45.8244661  99.9582548  59.5493325
  48.7605208 100.1435306  64.1120388  49.5365598 100.6331758  64.3845004
  48.0353342 100.5693360  64.5692257  51.1977767 100.8562925  65.1694328
  51.7922258 100.6158661  64.4587637  51.2704351 100.1370056  65.7967865
  49.1936502 101.4233053  61.4366458  48.9373436 101.0229688  62.2674666
  48.5689370 102.1376847  61.3116597  53.5048840 104.1629126  63.9437749
  52.9448398 104.2322315  64.7169312  52.8992343 103.9870111  63.2237246
  39.4262601  96.3256211  57.4854186  39.4141270  97.2698051  57.6422457
  40.3186022  96.1426357  57.1913647  43.2414720  92.9198988  61.7400123
  42.4747116  92.3657474  61.8856805  43.6525425  92.9920857  62.6014275
  35.2456481  99.2083784  75.8305304  36.1087943  98.8520588  76.0408629
  34.6721892  98.8697678  76.5180708   0.8936087  21.1988174  53.3613012
   1.5314497  21.0794922  52.6576352   0.7756930  22.1469018  53.4200964
   5.8485783  18.8614861  51.3399198   6.5810954  18.2914078  51.5737028
   5.0925138  18.4736462  51.7805704   3.2639866  17.2931522  52.8787157
   2.3556744  17.2246930  52.5845918   3.2127462  17.7703466  53.7068983
   5.1301513  15.4947960  54.6565031   4.4875893  15.7880493  54.0104826
   4.6256441  15.3800880  55.4618228   2.7841676  19.2411133  45.3450890
   3.6959532  19.4738520  45.1698588   2.2751323  19.8248177  44.7825969
   1.3911259  24.2236952  52.7364472   0.7620121  24.3882666  52.0340540
   1.0036921  24.6378561  53.5075436   5.2700490  25.1591389  50.0908835
   4.5851529  25.5390291  49.5405869   5.3544340  25.7686716  50.8240783
   2.5251422  22.8051348  56.6904179   2.7368317  23.4483108  56.0138560
   2.4781170  21.9713665  56.2226109   3.6397250  25.6823304  54.8626536
   4.4614694  25.2803491  54.5809218   3.6359653  25.5791538  55.8142652
  11.7303243  22.0262052  51.2111508  10.9766951  21.4569450  51.0555512
  11.8650784  21.9924717  52.1582142   0.8451586  27.8001821  59.0447971
   0.8270061  28.6210702  58.5528240   1.7671506  27.6755896  59.2698112
   5.4078892  23.1646982  45.8590729   4.6308334  22.8258142  45.4145891
   6.0870372  23.1699605  45.1845694   3.6470198  22.6380964  52.5157337
   2.9893873  23.3280225  52.6037466   4.4510598  23.0277395  52.8591324
   2.4575657  20.9925336  50.5661279   2.9707539  21.6255328  51.0682989
   3.1076881  20.3926532  50.2004639   3.2237453  25.9731338  48.6940422
   2.7699781  25.1322248  48.7505612   2.5931420  26.6092736  49.0315202
   2.1670373  16.9023324  49.9241089   1.4293130  16.3900710  50.2551332
   2.4197147  16.4623705  49.1124366   1.6670393  27.8107834  49.6290240
   1.9593367  28.3712891  48.9102605   2.1769013  28.1036395  50.3843399
   5.8067389  22.1790689  48.3213651   5.6685287  22.3692285  47.3934840
   5.4503607  22.9410072  48.7781702   5.8336768  24.2467216  53.3324923
   6.2673275  24.1542505  54.1807977   6.5468349  24.2224716  52.6944939
   6.6952318  24.2890917  55.8657808   6.8888208  25.1936727  56.1117083
   6.5952936  23.8298336  56.6996393   1.7567426  24.4397659  61.4398689
   1.6052933  24.2108211  60.5228772   1.7472106  25.3968261  61.4530034
   1.8105501  22.7617873  41.8569390   1.1934672  22.0364702  41.7602443
   1.3421990  23.5227234  41.5136464   3.4659633  27.4716782  59.5175171
   3.4072179  26.7876002  58.8505754   3.8679151  28.2135772  59.0655797
   3.4677040  25.4356366  57.7489150   2.5803819  25.0982288  57.8715549
   4.0375591  24.7039397  57.9857916   7.9494381  20.8464583  52.5105712
   7.9384257  21.7289299  52.1399645   7.0811760  20.4936134  52.3160249
   4.5666956  19.7413224  48.9775878   5.0327408  20.5741216  48.9036181
   5.0174456  19.2758206  49.6821136   2.6343187  26.0857045  45.9762030
   2.9103031  25.9713640  46.8855904   1.7647685  25.6874530  45.9374203
   2.3090077  20.2983703  55.5166673   1.6561527  20.5459610  54.8619126
   2.6870457  19.4847841  55.1829151   1.9511307  27.1731699  62.0938981
   2.4951211  27.7861657  61.5993936   1.3698152  27.7311277  62.6105994
   2.3003728  28.0961437  54.8533559   1.3534064  27.9766788  54.7811885
   2.6486501  27.2083935  54.9359820   2.9084283  28.7142712  52.1402784
   3.8330831  28.5085573  52.0027235   2.7399587  28.4659113  53.0492125
   2.6979600  29.2328380  47.4964875   2.8716477  28.6674802  46.7438727
   3.1908491  30.0329274  47.3144365   8.5518991  21.9964803  49.1155175
   8.9950137  21.2472128  48.7174298   7.6745501  21.9874939  48.7328907
   3.6854772  28.5495144  44.5961773   4.3805677  29.1701837  44.8149088
   4.0277922  27.6990495  44.8714151   5.5846195  25.9994849  46.1249104
   6.1097519  26.3382122  45.3998424   5.4968548  25.0641865  45.9412239
   5.2740101  26.6327753  61.4300302   4.4835645  26.6151892  60.8904801
   5.0373456  27.1716047  62.1849339   5.3937976  23.4820220  58.7433031
   5.4435981  23.3170227  59.6848553   5.2851900  22.6147479  58.3530911
   2.6841739  19.4651148  60.0592337   3.5851602  19.3257612  59.7676335
   2.7589713  19.6305602  60.9990515   6.8956173  25.9017161  58.9875052
   6.6040982  26.2647142  59.8238513   6.2828305  25.1884169  58.8088384
   8.0951856  23.4670041  51.5077622   8.9298747  23.9059845  51.6715183
   8.2310984  22.9908694  50.6885868   5.1443361  21.0249776  57.4555110
   5.6197483  21.2177422  56.6473961   4.2208927  21.0808961  57.2098494
   3.8445030  17.9015536  55.6883416   4.7962453  18.0013633  55.7095640
   3.6748481  17.1093804  56.1981500   1.8659410  14.9871119  55.8742817
   1.2709342  15.2676132  55.1789305   1.5809107  15.4765020  56.6459558
   0.9966900  28.9394046  44.6345449   1.9297574  28.8739607  44.8378325
   0.9090113  29.7750313  44.1759982   3.6254917  28.2559916  41.5949397
   3.5468549  27.9219780  42.4885155   4.4464584  28.7481684  41.5940869
   6.3233108  21.1221655  54.8025715   6.2909428  20.1837656  54.9885399
   6.9333732  21.2005692  54.0691540   6.4727597  17.9132699  54.8483999
   5.9566645  17.1291155  54.6613927   7.3567545  17.5851415  55.0130518
  12.1409658  22.1837662  53.9431752  12.8713047  21.9222950  54.5039455
  11.5316604  21.4466384  53.9833820  10.2224955  20.3245525  54.5406203
   9.4958119  20.1901490  53.9322695   9.8072242  20.6322353  55.3462921
   2.0515655  15.8083237  47.1211355   1.1641510  16.0932887  46.9031550
   2.4669644  15.6477000  46.2738632   5.4030192  15.8329758  50.8365694
   6.1790582  16.3226210  51.1090311   4.6778326  16.2587812  51.2937564
   7.8402750  16.5457377  51.8939635   8.4347241  16.3053113  51.1832943
   7.9129334  15.8264508  52.5213171   2.0256679  21.3237773  47.3361645
   1.9691881  21.7806324  46.4969278   2.5785022  20.5628457  47.1584488
   5.8361485  17.1127505  48.1611765   5.5798419  16.7124140  48.9919972
   5.2114353  17.8271299  48.0361904  10.1473823  19.8523578  50.6683056
   9.5873381  19.9216767  51.4414618   9.5417326  19.6764563  49.9482552
   3.1045566  26.0110441  43.2657835   3.9391170  25.5791639  43.0835310
   2.9429909  25.8392454  44.1934730   2.7591458  22.5142554  44.6314174
   2.7040262  22.3486825  43.6902619   2.1337514  23.2218587  44.7876364
  11.7329841  36.5280092  53.3613012  12.3708251  36.4086839  52.6576352
  11.6150684  37.4760936  53.4200964   8.5419548  36.4807520  53.2974537
   8.2038059  36.3648585  52.4095071   9.4109316  36.0798685  53.2775543
   4.4006363  38.3342996  49.2871427   3.8371228  38.2432933  48.5187715
   4.2858758  37.5142901  49.7673920   9.0239331  37.6342372  59.2560742
   9.0127971  37.2395170  58.3841246   9.1859970  36.9008444  59.8494514
   1.9470795  39.8294188  52.1255648   2.7392087  39.4885013  51.7101947
   2.1867445  39.9389163  53.0457801   9.9805922  42.0013964  44.5985892
   9.3293902  42.5868044  44.2119906  10.7750285  42.5320159  44.6580930
   3.9061549  39.0903101  44.9973027   4.6792425  38.5432088  44.8585903
   4.2586948  39.9547351  45.2087488   5.7446592  40.4179483  58.2039926
   5.4536458  41.3225114  58.0886592   6.3803576  40.4596011  58.9183996
   6.6702799  37.7956332  54.7941286   7.2666371  37.5712354  54.0798249
   6.7277770  37.0541077  55.3966734   6.2427827  35.2495767  42.6291477
   6.4953348  34.7277289  41.8674940   5.3052386  35.0861913  42.7318160
  11.2871110  34.2531546  50.4366220  12.0734199  33.8350969  50.0856637
  11.5509814  35.1577638  50.6047868  11.4581187  39.6904396  45.1354877
  10.8227020  39.7639023  45.8475781  11.1278594  40.2797995  44.4573956
  16.6879537  34.1906779  51.3399198  17.4204709  33.6205996  51.5737028
  15.9318893  33.8028379  51.7805704   5.9624116  37.1523873  44.8315852
   5.8460374  36.4768777  45.4996936   6.0726376  36.6656247  44.0148005
   8.3055657  36.6134020  48.5362541   7.9413864  36.0864641  49.2475462
   9.1622773  36.2232489  48.3629026  14.2104957  27.9028353  55.7993807
  13.8788282  28.7723764  55.5755022  13.6150571  27.5864637  56.4787837
   7.9461144  31.6423920  43.5323889   8.1135546  32.5104156  43.8994360
   7.7558313  31.8051202  42.6085179  10.7036477  40.1040899  55.1989720
  10.4037200  41.0065938  55.0905527  10.3587536  39.8373082  56.0510873
   4.1548958  36.5554696  51.2326424   3.2299455  36.4230910  51.4404116
   4.4033372  37.3348915  51.7296367  14.1033621  32.6223439  52.8787157
  13.1950498  32.5538848  52.5845918  14.0521216  33.0995384  53.7068983
   7.9250365  34.0981578  44.5170556   7.8049990  34.5438628  45.3556036
   7.2302953  34.4466895  43.9584094   1.5157769  36.1987969  52.0670213
   1.6450151  36.4522448  52.9809625   0.8355221  36.7915677  51.7474868
   5.6857257  46.8685219  48.1660687   5.6081286  47.8193044  48.2449168
   5.0818900  46.5231092  48.8235614   8.1774486  34.0413085  60.8222054
   7.4007821  34.6007005  60.8124919   8.8165049  34.5269868  61.3436924
  15.9695267  30.8239878  54.6565031  15.3269647  31.1172411  54.0104826
  15.4650196  30.7092798  55.4618228  13.6235431  34.5703051  45.3450890
  14.5353287  34.8030438  45.1698588  13.1145078  35.1540095  44.7825969
   6.4320859  36.8498538  60.3840021   7.1735543  37.3883582  60.1074845
   5.7257844  37.4764827  60.5411573  11.9076198  38.9927679  58.9812183
  12.3159554  38.5510089  58.2366815  11.1853460  38.4180306  59.2346376
   8.2607268  33.9300285  56.3545740   9.1068464  34.3539699  56.4980389
   8.2005906  33.2733910  57.0484303  12.2305013  39.5528869  52.7364472
  11.6013875  39.7174583  52.0340540  11.8430675  39.9670479  53.5075436
  16.1094245  40.4883307  50.0908835  15.4245283  40.8682208  49.5405869
  16.1938094  41.0978634  50.8240783  11.4106714  31.5904654  58.0126913
  11.1667646  32.3446714  57.4761189  11.6866644  31.9690001  58.8474160
  13.3645177  38.1343266  56.6904179  13.5762072  38.7775026  56.0138560
  13.3174925  37.3005583  56.2226109  10.9671405  30.7461087  53.5940751
  10.1055885  31.0442340  53.8857489  10.9933840  30.9631486  52.6621784
   7.7832975  39.2903277  50.0014557   8.2471320  39.5690980  49.2119179
   7.5189773  38.3886722  49.8187647   4.6757056  38.8374759  52.9394320
   5.2458413  39.2662027  52.3011805   5.2665168  38.5557344  53.6378506
   6.7201861  35.4126430  46.8104122   7.4225904  35.8647473  47.2778048
   6.3882489  34.7710249  47.4384015   5.1682222  34.0038186  61.1855331
   4.5380883  34.6854467  61.4190728   5.0618310  33.8921268  60.2408470
  14.4791004  41.0115222  54.8626536  15.3008448  40.6095409  54.5809218
  14.4753407  40.9083456  55.8142652   2.4141940  34.0354562  49.0704732
   1.6173104  34.1473256  49.5888228   2.1867533  34.3741214  48.2045623
   8.2447608  40.5599265  57.0187247   8.3092040  41.0219672  57.8545419
   7.5358532  39.9296630  57.1469557  22.5696998  37.3553970  51.2111508
  21.8160706  36.7861368  51.0555512  22.7044539  37.3216634  52.1582142
   7.9595626  42.2267372  46.8866227   7.8241300  43.0718908  47.3151075
   8.5005438  42.4286650  46.1232161   4.4462965  28.3058952  63.5480582
   4.0529911  27.7525151  64.2228227   5.2629106  28.6169531  63.9387100
   1.4125023  39.7442810  47.4594152   1.9249544  40.5386061  47.6099717
   2.0647736  39.0469101  47.3927754   3.2219908  42.8608567  49.5416905
   3.3986536  43.7826531  49.3537889   4.0176741  42.5466986  49.9711285
   7.3630926  29.7216831  61.1400839   8.1040640  30.3223984  61.0605301
   7.5948849  28.9794469  60.5818881   2.5072264  34.9073198  59.4179069
   2.3925779  34.0058456  59.7186168   1.6516782  35.1536895  59.0663885
   9.5864102  42.8490939  61.0166569   9.1427956  42.0627317  60.6987474
  10.2481316  43.0370089  60.3510460   4.3451223  44.3786740  55.5427248
   4.8958648  44.2503804  54.7704242   3.5062699  44.6781629  55.1922141
  11.6845340  43.1293739  59.0447971  11.6663815  43.9502620  58.5528240
  12.6065260  43.0047814  59.2698112   8.1418394  40.6437868  59.8871479
   8.6746731  39.8826156  59.6570787   7.6132475  40.3511520  60.6295633
  11.3088089  25.7497934  55.4165121  10.9652359  26.6399576  55.3404231
  11.6767052  25.5599592  54.5534706  11.2738372  35.7406545  43.9237556
  10.7584995  36.5111150  44.1625943  11.0015680  35.0671681  44.5470617
   8.8585483  30.5856246  48.9822794   8.0027079  30.1963096  48.8028433
   9.2712435  30.6648207  48.1222580  10.3884630  28.1202589  53.3814354
   9.8849425  28.0832724  52.5682159  10.6815236  29.0295332  53.4411011
   6.6327515  28.2041319  52.3880536   7.4980512  28.0084128  52.0286425
   6.7005024  27.9751671  53.3149892  16.2472646  38.4938900  45.8590729
  15.4702089  38.1550059  45.4145891  16.9264127  38.4991523  45.1845694
  11.0624675  33.6133637  45.7497337  10.7574811  33.9279787  46.6007480
  12.0155117  33.6915057  45.7924670   9.5071107  39.7723861  47.3990291
   8.9792468  39.0376620  47.0863528   9.0058610  40.5498537  47.1530259
  14.4863953  37.9672881  52.5157337  13.8287627  38.6572143  52.6037466
  15.2904352  38.3569313  52.8591324   4.2389835  30.4343527  49.7596902
   4.8133586  30.2118708  49.0270095   4.8260817  30.5032221  50.5125504
  13.2969412  36.3217254  50.5661279  13.8101293  36.9547246  51.0682989
  13.9470636  35.7218449  50.2004639   4.5659422  32.4647988  43.7792788
   3.7296734  32.8022675  44.1002062   4.4264191  32.3296968  42.8419925
   6.5412502  27.3084776  48.4871972   5.8876915  26.9933793  47.8628587
   6.4992976  26.6860516  49.2131795   7.6523707  37.5904071  40.4025264
   6.7450769  37.3593324  40.6016413   8.1494739  36.7941690  40.5899245
  10.5591786  46.3001578  43.3221950   9.8853485  46.6033275  43.9306908
  10.9457608  47.1030658  42.9727407   9.7750243  33.7966709  52.8119619
   8.8572804  34.0181656  52.6541308  10.1910386  33.8713020  51.9531327
  10.5585290  35.1958125  47.9422300  11.3057109  35.7079522  47.6329422
  10.8276880  34.8742178  48.8026693   8.8311941  37.6916666  44.9249254
   7.9223160  37.4075699  45.0221724   8.8607024  38.1115744  44.0652561
  14.0631208  41.3023255  48.6940422  13.6093535  40.4614165  48.7505612
  13.4325175  41.9384654  49.0315202  13.0064127  32.2315241  49.9241089
  12.2686884  31.7192628  50.2551332  13.2590901  31.7915623  49.1124366
  12.5064147  43.1399752  49.6290240  12.7987122  43.7004809  48.9102605
  13.0162768  43.4328313  50.3843399  13.1075755  25.0091493  50.5182858
  13.4134632  24.1488857  50.2308773  13.8328360  25.6009114  50.3181852
   7.3796835  35.3045286  51.0259049   7.4345444  34.3519123  50.9501526
   6.5688037  35.4604726  51.5100348   8.5288028  39.2325409  42.2637333
   8.0907458  38.5161268  41.8042970   9.2698469  39.4601524  41.7022424
   5.3189194  33.9222346  48.7849428   4.5057060  34.2216517  49.1914620
   5.8148189  33.5278035  49.5023910   7.4697772  43.9180103  50.7183693
   7.4273951  44.1440949  49.7892225   8.3860471  43.6843478  50.8669494
  10.9163406  34.3864171  57.6164322  11.2712794  34.6135644  58.4758788
  11.5635537  34.7182547  56.9941577  16.6461143  37.5082607  48.3213651
  16.5079042  37.6984203  47.3934840  16.2897362  38.2701989  48.7781702
   4.8103269  31.4940702  54.4010663   5.4502649  31.3529461  53.7033626
   3.9780800  31.2075215  54.0249265  16.6730523  39.5759134  53.3324923
  17.1067029  39.4834423  54.1807977  17.3862103  39.5516634  52.6944939
   5.5863573  40.7943132  50.5145656   6.3804172  40.2993452  50.3128231
   4.8755266  40.2660995  50.1513361  10.4058418  43.1761228  54.8658023
  10.4595440  43.7452164  55.6335739   9.5373199  43.3463113  54.5012060
   1.8946337  34.9386214  46.5905408   0.9643925  34.8770669  46.8075370
   1.9903809  34.4162167  45.7942050   1.8131886  31.4641027  49.1783650
   2.0738703  32.3786360  49.0692810   2.6349058  30.9965469  49.3280263
   3.2856811  32.8778784  56.3482475   3.9579864  32.6696146  55.6995123
   2.4586598  32.6800870  55.9087707  17.5346072  39.6182834  55.8657808
  17.7281962  40.5228645  56.1117083  17.4346690  39.1590253  56.6996393
   9.1882383  29.5040725  58.3648135   8.5410298  30.2030674  58.2712612
   9.9583398  29.9376869  58.7324384  12.5961181  39.7689577  61.4398689
  12.4446687  39.5400129  60.5228772  12.5865860  40.7260178  61.4530034
   9.3646517  37.3421490  56.4244955  10.2938577  37.4932649  56.2513922
   8.9437547  37.4305510  55.5693602   8.1634849  41.3672154  54.1943493
   8.0245935  40.9990939  55.0669431   7.3749445  41.8819794  54.0227451
   8.7583001  46.4681251  45.5369029   8.9334757  45.9969294  46.3514652
   8.0715789  47.0947017  45.7650290   9.7140064  40.7453757  51.5832331
   9.3789897  40.7054527  52.4789980   9.2144010  40.0798473  51.1102741
   3.6884308  36.1521387  57.1084912   3.5504106  35.4201626  57.7096451
   4.5989232  36.0630287  56.8269099  12.6499256  38.0909791  41.8569390
  12.0328427  37.3656619  41.7602443  12.1815744  38.8519151  41.5136464
   6.3166609  35.8641346  56.5968591   7.0266227  35.2234538  56.5555210
   6.2735917  36.1154241  57.5194772  14.3053388  42.8008699  59.5175171
  14.2465934  42.1167920  58.8505754  14.7072906  43.5427689  59.0655797
   5.0295543  32.8506564  58.4164231   4.4932900  32.3997302  59.0685827
   4.4412251  32.9852473  57.6734695   3.3244086  49.6170613  52.3108889
   3.5640685  50.2489137  52.9887908   2.4813283  49.2658653  52.5974249
   4.4397802  32.3095215  40.9790694   3.5627268  32.1884016  40.6152941
   4.9155555  31.5181294  40.7269583  14.3070795  40.7648283  57.7489150
  13.4197574  40.4274205  57.8715549  14.8769346  40.0331315  57.9857916
   7.8371948  45.4249736  54.7150393   7.7642120  46.2304707  55.2269698
   7.3949341  45.6241702  53.8898415   7.6261728  44.6621506  48.2253215
   6.8429250  45.2043186  48.3191439   8.3254473  45.1795485  48.6247456
  10.9358378  30.4716135  50.8687420  11.4327078  29.7186098  50.5488491
  10.1645359  30.5080452  50.3030630  18.7888135  36.1756501  52.5105712
  18.7778012  37.0581216  52.1399645  17.9205515  35.8228052  52.3160249
  10.2970632  45.3236570  56.8708552  11.0098604  45.9584035  56.7984454
   9.8060660  45.4200436  56.0548554  12.0188159  39.2287822  48.4425844
  11.0844437  39.3489285  48.2730548  12.1964827  38.3260289  48.1785854
   7.5193347  32.6133518  50.5959105   7.1491134  32.0604559  51.2840011
   8.0152439  32.0091652  50.0434105  15.4060710  35.0705142  48.9775878
  15.8721162  35.9033133  48.9036181  15.8568211  34.6050123  49.6821136
   5.3482545  43.0731013  57.6914123   6.0492005  43.7067496  57.8443517
   4.8777660  43.4145745  56.9309762  13.4736941  41.4148963  45.9762030
  13.7496785  41.3005558  46.8855904  12.6041440  41.0166448  45.9374203
  13.3777373  27.4385729  53.0166779  12.4640453  27.6689956  53.1848986
  13.8070474  27.5224173  53.8680812  13.1483831  35.6275621  55.5166673
  12.4955282  35.8751528  54.8619126  13.5264211  34.8139759  55.1829151
  10.1091005  45.6635314  49.6194844  10.2913400  44.8456970  50.0822596
  10.9323991  45.8803006  49.1819734  10.4433171  44.5903499  46.8809892
  10.9720937  44.0795954  46.2680054  10.7061390  44.2746029  47.7455425
   9.1971404  36.3695432  62.0032710   8.5212041  36.2689561  62.6735086
  10.0199038  36.2134646  62.4668708   0.9450263  42.6067368  54.6245226
   1.5303700  41.8611056  54.7573130   0.7475102  42.9171325  55.5081889
   3.7988919  45.6418616  49.6407668   3.1299294  46.1264743  49.1571708
   3.6601788  45.8887836  50.5551046   7.9394187  47.6762359  56.2390326
   8.4912495  47.8393981  57.0039412   8.2800381  48.2666797  55.5670351
   2.9158680  30.0237509  56.8412211   2.9800007  30.8852340  56.4289609
   2.8525801  29.4111511  56.1084570   2.3910953  32.0960642  60.4885245
   3.0182992  31.7137719  61.1022770   1.5338872  31.8774844  60.8540938
  12.7905061  42.5023617  62.0938981  13.3344965  43.1153575  61.5993936
  12.2091906  43.0603195  62.6105994  11.0762574  45.6244335  53.2254008
  10.9513714  44.8234075  52.7164954  11.7341666  46.1190528  52.7367978
   2.6970743  31.9793067  52.4031149   1.9757328  32.5929035  52.2638622
   3.4863998  32.5150832  52.3247795  13.1397483  43.4253355  54.8533559
  12.1927818  43.3058706  54.7811885  13.4880256  42.5375853  54.9359820
   5.4997056  29.3147494  58.6771800   6.0231458  29.5609790  59.4398110
   5.2809389  30.1467529  58.2574938   0.8964337  31.5851168  46.5442925
   0.5677043  30.7048547  46.3618031   1.2503708  31.5298837  47.4319315
  10.1443916  43.2206071  51.0537911   9.9968879  42.2922778  51.2345481
  10.9697410  43.2426162  50.5694986   4.0106160  31.8724138  46.9118403
   4.3502233  32.4010059  46.1897011   4.4578281  32.2104544  47.6876969
  13.7478038  44.0434630  52.1402784  14.6724585  43.8377491  52.0027235
  13.5793341  43.7951031  53.0492125   6.7049601  30.2561189  56.3621471
   6.3646422  29.4569002  56.7642151   5.9988608  30.5562900  55.7898304
   7.3566073  27.3410501  54.8148794   8.1792142  26.8670979  54.6927684
   7.6004137  28.1200985  55.3147480   5.9974308  30.3698760  45.1111696
   6.7182670  30.7480013  44.6075413   5.3739612  31.0887637  45.2146674
  10.1405430  31.0743909  46.0470028  10.3569045  31.9568547  45.7458856
   9.6599498  30.6830122  45.3175670   4.8804652  34.0329622  52.6240773
   4.7349233  34.3469925  53.5165054   4.4029855  34.6514522  52.0711671
   6.7401035  31.0232170  52.6721662   6.7262603  30.1273263  52.3353960
   7.4573463  31.0302834  53.3059948   8.5927165  31.4569510  54.7174790
   8.3344943  32.3786581  54.7159120   8.0612206  31.0599945  55.4075254
  13.5373354  44.5620297  47.4964875  13.7110232  43.9966720  46.7438727
  14.0302245  45.3621192  47.3144365   6.1437931  29.9046550  47.9409232
   6.2653842  28.9763196  48.1400120   5.8539973  29.9185236  47.0287548
   9.0129121  27.5901461  51.0775952   9.0350818  27.6540794  50.1227932
   9.4297180  26.7505969  51.2716458  19.3912745  37.3256720  49.1155175
  19.8343891  36.5764045  48.7174298  18.5139256  37.3166857  48.7328907
  14.5248527  43.8787062  44.5961773  15.2199431  44.4993754  44.8149088
  14.8671677  43.0282413  44.8714151  16.4239950  41.3286767  46.1249104
  16.9491274  41.6674040  45.3998424  16.3362302  40.3933782  45.9412239
   8.0859998  45.2420841  58.2538981   8.3947125  44.9969988  59.1261680
   8.8835481  45.4467479  57.7657851   8.1080611  47.3958750  50.4844357
   7.6685601  46.9035129  51.1777214   8.8588727  46.8531718  50.2436432
   5.5554483  42.9396760  52.5566659   4.9334492  42.2767465  52.2568887
   6.2259350  42.9657891  51.8740307   5.6279010  31.4178548  62.1499165
   5.6767166  32.2940670  61.7676935   6.1701524  30.8755941  61.5770808
  16.1133856  41.9619671  61.4300302  15.3229400  41.9443810  60.8904801
  15.8767210  42.5007965  62.1849339  16.2331731  38.8112137  58.7433031
  16.2829736  38.6462145  59.6848553  16.1245654  37.9439396  58.3530911
   5.1167990  41.4900683  46.0325119   5.2656110  42.1736147  45.3791792
   5.9234433  41.4705773  46.5474575  13.5235493  34.7943065  60.0592337
  14.4245356  34.6549530  59.7676335  13.5983468  34.9597520  60.9990515
   7.8578299  32.1709920  58.9045524   6.9881608  32.4643486  58.6328112
   8.0937779  32.7550365  59.6252787  17.7349928  41.2309079  58.9875052
  17.4434736  41.5939059  59.8238513  17.1222059  40.5176087  58.8088384
  18.9345610  38.7961958  51.5077622  19.7692501  39.2351763  51.6715183
  19.0704739  38.3200612  50.6885868  15.9837116  36.3541693  57.4555110
  16.4591238  36.5469340  56.6473961  15.0602681  36.4100879  57.2098494
   2.8720623  37.5165861  47.0386188   2.6266665  36.6128191  47.2366398
   3.0416537  37.5183011  46.0965666  10.5617332  28.3889537  56.4210944
  11.0799276  29.1250564  56.0957433  10.2072465  28.6953530  57.2557703
   2.1416270  33.2494218  44.5372350   1.4485515  33.3238573  43.8812386
   1.8968022  32.4854562  45.0593867  10.8129927  24.8089819  51.9411841
  11.0931680  24.1413008  52.5672267  11.5980534  25.0018915  51.4286504
   8.6163395  43.9848813  43.5036867   8.0437362  44.6039000  43.0507339
   9.1896189  44.5348175  44.0376789  14.6838785  33.2307453  55.6883416
  15.6356208  33.3305551  55.7095640  14.5142235  32.4385722  56.1981500
  12.7053164  30.3163037  55.8742817  12.1103097  30.5968049  55.1789305
  12.4202861  30.8056938  56.6459558  11.8360655  44.2685963  44.6345449
  12.7691328  44.2031525  44.8378325  11.7483868  45.1042230  44.1759982
  14.4648672  43.5851834  41.5949397  14.3862303  43.2511697  42.4885155
  15.2858338  44.0773602  41.5940869  17.1626863  36.4513573  54.8025715
  17.1303183  35.5129574  54.9885399  17.7727486  36.5297610  54.0691540
   9.0010194  35.3209626  40.8452919   9.9469298  35.1915834  40.9141337
   8.6224439  34.5824288  41.3222348  17.3121351  33.2424617  54.8483999
  16.7960400  32.4583073  54.6613927  18.1961300  32.9143333  55.0130518
  14.9732078  26.9865632  50.8079811  14.7756899  26.6780720  51.6923143
  15.5831784  27.7127271  50.9377741  22.9803413  37.5129580  53.9431752
  23.7106801  37.2514868  54.5039455  22.3710358  36.7758302  53.9833820
  21.0618710  35.6537443  54.5406203  20.3351873  35.5193407  53.9322695
  20.6465997  35.9614271  55.3462921   8.8848886  39.3727372  62.3053576
   9.8051896  39.5505971  62.4993623   8.8498469  38.4283418  62.1533276
   7.1853111  33.2459602  40.7807805   6.2784566  32.9492715  40.8570518
   7.4629092  32.9489421  39.9142091   1.8810959  37.2828407  54.9476358
   2.0996968  38.2145515  54.9664391   2.2936733  36.9236381  55.7331161
   8.8015177  27.7896492  46.9352046   7.9915905  27.4443577  47.3107292
   9.4899593  27.4804036  47.5239657  10.7305725  26.8674539  48.5576343
  11.2836763  27.2869992  49.2166366  10.9675811  25.9410287  48.5999299
   6.7538824  32.8561613  64.3379106   6.6535551  33.8055970  64.2691198
   6.5360366  32.5279852  63.4655177   5.9551895  30.1046538  40.9219784
   6.8171059  30.4301436  41.1815601   6.1402240  29.3178034  40.4092850
  14.1084532  28.9775064  48.0655007  13.5283201  29.6359868  47.6833059
  13.8420465  28.1552409  47.6542424  12.5588098  28.3780122  50.2676327
  13.0587877  28.4896656  49.4590646  13.2023706  28.0741175  50.9077136
   6.6170094  36.2858751  63.1544168   6.1337176  37.0859112  63.3608057
   6.7031033  36.2966696  62.2011612   2.5443432  40.1763286  55.1912602
   3.4986685  40.1447229  55.1242533   2.3455955  39.7153910  56.0062828
   3.1342814  38.7464402  57.7583400   3.9535703  39.2408481  57.7818237
   3.4079621  37.8296370  57.7300967  12.8909410  31.1375155  47.1211355
  12.0035265  31.4224805  46.9031550  13.3063399  30.9768918  46.2738632
  16.2423946  31.1621676  50.8365694  17.0184336  31.6518128  51.1090311
  15.5172080  31.5879730  51.2937564  18.6796505  31.8749295  51.8939635
  19.2740995  31.6345031  51.1832943  18.7523088  31.1556425  52.5213171
  12.0352623  40.9019829  41.2159375  12.7388473  41.1069832  41.8317031
  11.3115272  41.4696591  41.4808459  12.8650434  36.6529690  47.3361645
  12.8085635  37.1098242  46.4969278  13.4178776  35.8920375  47.1584488
  16.6755240  32.4419422  48.1611765  16.4192174  32.0416058  48.9919972
  16.0508108  33.1563216  48.0361904  20.9867577  35.1815496  50.6683056
  20.4267135  35.2508685  51.4414618  20.3811081  35.0056480  49.9482552
   4.0562786  46.6152223  52.4201242   3.9395170  47.5597655  52.3179933
   3.2355232  46.3125784  52.8087042  13.9439321  41.3402358  43.2657835
  14.7784925  40.9083557  43.0835310  13.7823664  41.1684372  44.1934730
  13.5985213  37.8434472  44.6314174  13.5434017  37.6778743  43.6902619
  12.9731268  38.5510505  44.7876364  10.9131120  40.1483384  63.9567737
  11.7822280  40.3224036  63.5954372  10.4337872  40.9677800  63.8343467
   6.9081338  27.3442581  44.2099493   6.8960008  28.2884421  44.3667764
   7.8004760  27.1612726  43.9158954   5.0817300  47.2680485  55.6357171
   5.9844547  47.3004095  55.9523666   4.8554670  46.3380936  55.6503507
   6.8370902  46.0211471  52.2967249   5.8866533  46.0213333  52.1831622
   7.1403389  45.2744206  51.7803284  10.7233458  23.9385357  48.4645430
   9.9565854  23.3843844  48.6102112  11.1344163  24.0107226  49.3259581
   2.7275219  30.2270153  62.5550611   3.5906680  29.8706958  62.7653935
   2.1540630  29.8884048  63.2426015  22.5723596  51.8572010  53.3613012
  23.2102006  51.7378757  52.6576352  22.4544439  52.8052853  53.4200964
  19.3813302  51.8099438  53.2974537  19.0431814  51.6940502  52.4095071
  20.2503070  51.4090603  53.2775543  15.2400118  53.6634914  49.2871427
  14.6764983  53.5724851  48.5187715  15.1252513  52.8434818  49.7673920
  12.7864550  55.1586106  52.1255648  13.5785842  54.8176930  51.7101947
  13.0261200  55.2681081  53.0457801  14.7455304  54.4195019  44.9973027
  15.5186180  53.8724006  44.8585903  15.0980703  55.2839268  45.2087488
  16.5840346  55.7471401  58.2039926  16.2930212  56.6517032  58.0886592
  17.2197331  55.7887929  58.9183996  17.5096553  53.1248250  54.7941286
  18.1060125  52.9004272  54.0798249  17.5671525  52.3832995  55.3966734
  17.0821582  50.5787685  42.6291477  17.3347102  50.0569206  41.8674940
  16.1446141  50.4153830  42.7318160  22.1264864  49.5823463  50.4366220
  22.9127954  49.1642887  50.0856637  22.3903569  50.4869556  50.6047868
  16.8017870  52.4815791  44.8315852  16.6854128  51.8060694  45.4996936
  16.9120130  51.9948165  44.0148005  19.1449411  51.9425938  48.5362541
  18.7807618  51.4156559  49.2475462  20.0016527  51.5524407  48.3629026
  25.0498712  43.2320271  55.7993807  24.7182037  44.1015682  55.5755022
  24.4544325  42.9156555  56.4787837  18.7854898  46.9715838  43.5323889
  18.9529301  47.8396074  43.8994360  18.5952067  47.1343119  42.6085179
  14.9942713  51.8846614  51.2326424  14.0693209  51.7522828  51.4404116
  15.2427126  52.6640833  51.7296367  24.9427375  47.9515357  52.8787157
  24.0344252  47.8830765  52.5845918  24.8914971  48.4287302  53.7068983
  18.7644119  49.4273495  44.5170556  18.6443744  49.8730546  45.3556036
  18.0696707  49.7758813  43.9584094  12.3551524  51.5279887  52.0670213
  12.4843905  51.7814366  52.9809625  11.6748975  52.1207595  51.7474868
  19.0168241  49.3705002  60.8222054  18.2401575  49.9298923  60.8124919
  19.6558804  49.8561785  61.3436924  26.8089022  46.1531795  54.6565031
  26.1663402  46.4464328  54.0104826  26.3043950  46.0384716  55.4618228
  24.4629185  49.8994968  45.3450890  25.3747041  50.1322355  45.1698588
  23.9538832  50.4832013  44.7825969  17.2714613  52.1790456  60.3840021
  18.0129298  52.7175500  60.1074845  16.5651599  52.8056745  60.5411573
  19.1001023  49.2592203  56.3545740  19.9462218  49.6831617  56.4980389
  19.0399661  48.6025827  57.0484303  22.2500468  46.9196571  58.0126913
  22.0061400  47.6738632  57.4761189  22.5260399  47.2981919  58.8474160
  21.8065160  46.0753004  53.5940751  20.9449639  46.3734258  53.8857489
  21.8327595  46.2923403  52.6621784  15.5150810  54.1666677  52.9394320
  16.0852168  54.5953945  52.3011805  16.1058922  53.8849261  53.6378506
  17.5595615  50.7418347  46.8104122  18.2619659  51.1939391  47.2778048
  17.2276244  50.1002166  47.4384015  16.0075977  49.3330104  61.1855331
  15.3774638  50.0146385  61.4190728  15.9012065  49.2213186  60.2408470
  11.3020949  49.0001900  52.1121255  10.5120003  49.2559429  51.6361366
  11.7932197  49.8150238  52.2173296  13.2535695  49.3646479  49.0704732
  12.4566858  49.4765174  49.5888228  13.0261287  49.7033131  48.2045623
   9.5858652  49.2532390  54.5436246   9.8366691  50.1379400  54.8093822
  10.1218201  49.0736992  53.7711338  15.2856720  43.6350870  63.5480582
  14.8923665  43.0817068  64.2228227  16.1022860  43.9461448  63.9387100
  12.2518777  55.0734728  47.4594152  12.7643298  55.8677978  47.6099717
  12.9041490  54.3761018  47.3927754  18.2024681  45.0508749  61.1400839
  18.9434394  45.6515902  61.0605301  18.4342604  44.3086387  60.5818881
  13.3466019  50.2365116  59.4179069  13.2319534  49.3350373  59.7186168
  12.4910536  50.4828813  59.0663885  15.1844978  59.7078658  55.5427248
  15.7352403  59.5795721  54.7704242  14.3456454  60.0073547  55.1922141
  22.1481844  41.0789852  55.4165121  21.8046113  41.9691494  55.3404231
  22.5160806  40.8891509  54.5534706  10.2167694  53.4023382  48.2353723
  11.0542916  53.8120391  48.0187430  10.3945962  52.4622824  48.2053917
  22.1132126  51.0698463  43.9237556  21.5978750  51.8403068  44.1625943
  21.8409435  50.3963599  44.5470617  19.6979237  45.9148164  48.9822794
  18.8420834  45.5255014  48.8028433  20.1106189  45.9940125  48.1222580
  21.2278384  43.4494507  53.3814354  20.7243180  43.4124642  52.5682159
  21.5208991  44.3587250  53.4411011  17.4721270  43.5333237  52.3880536
  18.3374267  43.3376045  52.0286425  17.5398779  43.3043588  53.3149892
  27.0866400  53.8230818  45.8590729  26.3095843  53.4841977  45.4145891
  27.7657881  53.8283441  45.1845694  21.9018430  48.9425555  45.7497337
  21.5968565  49.2571704  46.6007480  22.8548872  49.0206975  45.7924670
  25.3257707  53.2964799  52.5157337  24.6681382  53.9864060  52.6037466
  26.1298107  53.6861231  52.8591324  15.0783589  45.7635445  49.7596902
  15.6527341  45.5410626  49.0270095  15.6654571  45.8324139  50.5125504
  15.4053176  47.7939906  43.7792788  14.5690488  48.1314592  44.1002062
  15.2657946  47.6588885  42.8419925  17.3806257  42.6376694  48.4871972
  16.7270669  42.3225711  47.8628587  17.3386731  42.0152434  49.2131795
  18.4917462  52.9195989  40.4025264  17.5844523  52.6885242  40.6016413
  18.9888494  52.1233608  40.5899245  21.3979045  50.5250043  47.9422300
  22.1450864  51.0371440  47.6329422  21.6670634  50.2034096  48.8026693
  23.8457882  47.5607159  49.9241089  23.1080639  47.0484545  50.2551332
  24.0984656  47.1207541  49.1124366  23.9469509  40.3383411  50.5182858
  24.2528386  39.4780774  50.2308773  24.6722114  40.9301031  50.3181852
  10.2393865  50.7414098  48.9064456  10.0418265  50.1483458  48.1815523
   9.6840529  50.4366308  49.6240395  18.2190589  50.6337204  51.0259049
  18.2739199  49.6811041  50.9501526  17.4081791  50.7896643  51.5100348
  16.1582949  49.2514264  48.7849428  15.3450814  49.5508434  49.1914620
  16.6541943  48.8569953  49.5023910  21.7557161  49.7156088  57.6164322
  22.1106548  49.9427561  58.4758788  22.4029292  50.0474465  56.9941577
  15.6497024  46.8232619  54.4010663  16.2896403  46.6821378  53.7033626
  14.8174554  46.5367133  54.0249265  12.7340091  50.2678132  46.5905408
  11.8037679  50.2062587  46.8075370  12.8297563  49.7454084  45.7942050
  12.6525640  46.7932944  49.1783650  12.9132457  47.7078278  49.0692810
  13.4742812  46.3257387  49.3280263  14.1250565  48.2070702  56.3482475
  14.7973619  47.9988064  55.6995123  13.2980352  48.0092788  55.9087707
  20.0276137  44.8332642  58.3648135  19.3804053  45.5322592  58.2712612
  20.7977153  45.2668786  58.7324384  20.2040272  52.6713407  56.4244955
  21.1332332  52.8224567  56.2513922  19.7831302  52.7597428  55.5693602
  14.5278063  51.4813305  57.1084912  14.3897861  50.7493543  57.7096451
  15.4382986  51.3922205  56.8269099  23.4893010  53.4201709  41.8569390
  22.8722181  52.6948537  41.7602443  23.0209499  54.1811069  41.5136464
  17.1560363  51.1933264  56.5968591  17.8659982  50.5526456  56.5555210
  17.1129672  51.4446159  57.5194772  15.8689297  48.1798482  58.4164231
  15.3326654  47.7289220  59.0685827  15.2806006  48.3144391  57.6734695
  15.2791556  47.6387133  40.9790694  14.4021023  47.5175934  40.6152941
  15.7549309  46.8473211  40.7269583   6.7993696  52.4264293  51.0732202
   7.4864736  52.1126023  50.4853217   6.6441825  53.3305657  50.7999453
  11.6028419  47.3154489  55.5017225  11.5186607  46.7080159  54.7667635
  10.7811125  47.8063508  55.5026722  21.7752132  45.8008053  50.8687420
  22.2720832  45.0478015  50.5488491  21.0039114  45.8372370  50.3030630
  18.3587101  47.9425436  50.5959105  17.9884889  47.3896476  51.2840011
  18.8546194  47.3383569  50.0434105  16.1876300  58.4022931  57.6914123
  16.8885759  59.0359414  57.8443517  15.7171415  58.7437662  56.9309762
  24.2171127  42.7677646  53.0166779  23.3034207  42.9981873  53.1848986
  24.6464229  42.8516090  53.8680812  23.9877586  50.9567538  55.5166673
  23.3349036  51.2043446  54.8619126  24.3657966  50.1431677  55.1829151
  20.0365159  51.6987349  62.0032710  19.3605796  51.5981479  62.6735086
  20.8592793  51.5426563  62.4668708  11.7844018  57.9359286  54.6245226
  12.3697455  57.1902974  54.7573130  11.5868856  58.2463243  55.5081889
   6.3761673  50.5064886  53.3449669   6.4145772  49.9728477  54.1386787
   5.8701965  49.9800092  52.7260646  13.7552435  45.3529427  56.8412211
  13.8193761  46.2144258  56.4289609  13.6919555  44.7403428  56.1084570
  13.2304707  47.4252559  60.4885245  13.8576746  47.0429637  61.1022770
  12.3732626  47.2066761  60.8540938  10.0070250  49.2328988  46.4203600
  10.3023691  48.3239667  46.3670654   9.1058286  49.2116728  46.0984602
  13.5364497  47.3084985  52.4031149  12.8151083  47.9220953  52.2638622
  14.3257753  47.8442750  52.3247795  16.3390811  44.6439411  58.6771800
  16.8625213  44.8901708  59.4398110  16.1203144  45.4759446  58.2574938
  11.7358092  46.9143086  46.5442925  11.4070798  46.0340465  46.3618031
  12.0897462  46.8590755  47.4319315  14.8499915  47.2016056  46.9118403
  15.1895987  47.7301977  46.1897011  15.2972035  47.5396462  47.6876969
  17.5443356  45.5853107  56.3621471  17.2040176  44.7860920  56.7642151
  16.8382362  45.8854817  55.7898304  18.1959828  42.6702419  54.8148794
  19.0185897  42.1962897  54.6927684  18.4397891  43.4492903  55.3147480
  16.8368062  45.6990677  45.1111696  17.5576425  46.0771930  44.6075413
  16.2133366  46.4179554  45.2146674  20.9799185  46.4035826  46.0470028
  21.1962799  47.2860464  45.7458856  20.4993252  46.0122040  45.3175670
  15.7198406  49.3621540  52.6240773  15.5742987  49.6761843  53.5165054
  15.2423610  49.9806440  52.0711671  17.5794789  46.3524088  52.6721662
  17.5656358  45.4565181  52.3353960  18.2967217  46.3594751  53.3059948
  19.4320920  46.7861428  54.7174790  19.1738698  47.7078498  54.7159120
  18.9005960  46.3891862  55.4075254  10.1944068  51.9026884  55.5628434
   9.6497537  52.6786692  55.6948708  11.0723418  52.2497688  55.4047555
  16.9831685  45.2338468  47.9409232  17.1047596  44.3055114  48.1400120
  16.6933728  45.2477154  47.0287548  19.8522876  42.9193378  51.0775952
  19.8744572  42.9832711  50.1227932  20.2690935  42.0797887  51.2716458
  10.9810090  51.0296780  58.4558591  10.2391826  51.1779416  59.0423221
  10.6602835  51.2905046  57.5925340  11.4266704  58.9162209  50.4868985
  12.2524724  58.6165981  50.1067629  11.0760756  58.1469831  50.9358774
   9.6275309  56.8348535  51.4457919   8.7907217  56.4070710  51.2641920
   9.5998954  57.0280979  52.3828710  16.4672765  46.7470465  62.1499165
  16.5160920  47.6232588  61.7676935  17.0095279  46.2047858  61.5770808
  15.9561744  56.8192601  46.0325119  16.1049864  57.5028065  45.3791792
  16.7628188  56.7997691  46.5474575  24.3629248  50.1234983  60.0592337
  25.2639111  49.9841448  59.7676335  24.4377222  50.2889438  60.9990515
  18.6972053  47.5001838  58.9045524  17.8275363  47.7935404  58.6328112
  18.9331533  48.0842283  59.6252787  13.7114377  52.8457778  47.0386188
  13.4660419  51.9420108  47.2366398  13.8810292  52.8474929  46.0965666
  21.4011087  43.7181455  56.4210944  21.9193031  44.4542481  56.0957433
  21.0466220  44.0245448  57.2557703  12.9810025  48.5786136  44.5372350
  12.2879270  48.6530491  43.8812386  12.7361777  47.8146479  45.0593867
  21.6523681  40.1381737  51.9411841  21.9325435  39.4704926  52.5672267
  22.4374288  40.3310833  51.4286504  23.5446919  45.6454954  55.8742817
  22.9496851  45.9259967  55.1789305  23.2596616  46.1348855  56.6459558
  19.8403948  50.6501544  40.8452919  20.7863053  50.5207752  40.9141337
  19.4618193  49.9116206  41.3222348  25.8125833  42.3157550  50.8079811
  25.6150654  42.0072638  51.6923143  26.4225538  43.0419189  50.9377741
  18.0246865  48.5751520  40.7807805  17.1178321  48.2784633  40.8570518
  18.3022846  48.2781338  39.9142091   8.9424806  49.8957884  51.2306851
   8.6227590  49.0423192  50.9381225   8.3958234  50.1106462  51.9864818
  12.7204713  52.6120325  54.9476358  12.9390723  53.5437432  54.9664391
  13.1330487  52.2528299  55.7331161  19.6408931  43.1188410  46.9352046
  18.8309659  42.7735495  47.3107292  20.3293348  42.8095954  47.5239657
  21.5699479  42.1966457  48.5576343  22.1230518  42.6161910  49.2166366
  21.8069566  41.2702205  48.5999299  17.5932579  48.1853530  64.3379106
  17.4929305  49.1347887  64.2691198  17.3754121  47.8571769  63.4655177
  16.7945650  45.4338455  40.9219784  17.6564814  45.7593354  41.1815601
  16.9795994  44.6469951  40.4092850   8.8113066  53.5160795  53.1999973
   8.1176537  53.1014748  52.6869927   9.5586057  53.5581332  52.6033391
  24.9478286  44.3066982  48.0655007  24.3676955  44.9651786  47.6833059
  24.6814219  43.4844326  47.6542424  23.3981853  43.7072040  50.2676327
  23.8981631  43.8188574  49.4590646  24.0417461  43.4033092  50.9077136
  17.4563849  51.6150669  63.1544168  16.9730930  52.4151029  63.3608057
  17.5424788  51.6258614  62.2011612  10.7249808  53.4479049  51.0765987
  10.7020496  53.5466736  50.1247871  11.0350445  54.2944200  51.3983154
  13.3837186  55.5055204  55.1912602  14.3380440  55.4739146  55.1242533
  13.1849710  55.0445828  56.0062828  13.9736568  54.0756320  57.7583400
  14.7929457  54.5700399  57.7818237  14.2473376  53.1588288  57.7300967
  23.7303164  46.4667072  47.1211355  22.8429019  46.7516723  46.9031550
  24.1457153  46.3060836  46.2738632  11.7387415  61.0474823  52.2082800
  11.6041883  60.2875224  51.6420798  11.3219477  61.7715723  51.7411589
  24.4378967  53.1726389  44.6314174  24.3827771  53.0070661  43.6902619
  23.8125023  53.8802422  44.7876364   9.2271482  48.4094454  58.4575597
   9.8730346  47.8993408  58.9462822   9.0188634  49.1463135  59.0319022
  17.7475093  42.6734498  44.2099493  17.7353763  43.6176338  44.3667764
  18.6398515  42.4904644  43.9158954  15.9211055  62.5972402  55.6357171
  16.8238302  62.6296013  55.9523666  15.6948425  61.6672853  55.6503507
  21.5627212  39.2677275  48.4645430  20.7959608  38.7135762  48.6102112
  21.9737917  39.3399144  49.3259581  13.5668973  45.5562071  62.5550611
  14.4300435  45.1998876  62.7653935  12.9934384  45.2175966  63.2426015
  38.3667046  64.8490614  51.3399198  39.0992218  64.2789831  51.5737028
  37.6106402  64.4612215  51.7805704  35.7821130  63.2807275  52.8787157
  34.8738007  63.2122683  52.5845918  35.7308725  63.7579219  53.7068983
  32.6145887  61.1299971  50.8687420  33.1114587  60.3769933  50.5488491
  31.8432868  61.1664287  50.3030630  40.4675644  66.8340336  52.5105712
  40.4565521  67.7165052  52.1399645  39.5993024  66.4811887  52.3160249
  44.6590922  68.1713415  53.9431752  45.3894310  67.9098703  54.5039455
  44.0497867  67.4342137  53.9833820  42.7406219  66.3121278  54.5406203
  42.0139382  66.1777243  53.9322695  42.3253506  66.6198107  55.3462921
  37.9211455  61.8205511  50.8365694  38.6971845  62.3101963  51.1090311
  37.1959589  62.2463565  51.2937564  40.3584014  62.5333130  51.8939635
  40.9528504  62.2928866  51.1832943  40.4310597  61.8140261  52.5213171
  44.2511105  82.5155845  53.3613012  44.8889515  82.3962592  52.6576352
  44.1331948  83.4636689  53.4200964  41.0600811  82.4683273  53.2974537
  40.7219323  82.3524338  52.4095071  41.9290579  82.0674438  53.2775543
  36.9187627  84.3218749  49.2871427  36.3552492  84.2308686  48.5187715
  36.8040022  83.5018654  49.7673920  41.5420594  83.6218125  59.2560742
  41.5309235  83.2270923  58.3841246  41.7041234  82.8884197  59.8494514
  42.4987186  87.9889717  44.5985892  41.8475165  88.5743797  44.2119906
  43.2931548  88.5195912  44.6580930  36.4242813  85.0778854  44.9973027
  37.1973689  84.5307841  44.8585903  36.7768212  85.9423104  45.2087488
  38.2627855  86.4055237  58.2039926  37.9717721  87.3100867  58.0886592
  38.8984840  86.4471764  58.9183996  39.1884062  83.7832085  54.7941286
  39.7847634  83.5588107  54.0798249  39.2459034  83.0416831  55.3966734
  43.8052373  80.2407299  50.4366220  44.5915463  79.8226722  50.0856637
  44.0691078  81.1453391  50.6047868  43.9762451  85.6780149  45.1354877
  43.3408284  85.7514776  45.8475781  43.6459857  86.2673748  44.4573956
  49.2060800  80.1782532  51.3399198  49.9385972  79.6081749  51.5737028
  48.4500156  79.7904132  51.7805704  40.8236920  82.6009773  48.5362541
  40.4595127  82.0740394  49.2475462  41.6804036  82.2108242  48.3629026
  43.2217740  86.0916652  55.1989720  42.9218463  86.9941691  55.0905527
  42.8768800  85.8248835  56.0510873  46.6214884  78.6099192  52.8787157
  45.7131761  78.5414601  52.5845918  46.5702480  79.0871137  53.7068983
  38.2038520  92.8560972  48.1660687  38.1262550  93.8068797  48.2449168
  37.6000164  92.5106845  48.8235614  40.6955750  80.0288838  60.8222054
  39.9189084  80.5882758  60.8124919  41.3346313  80.5145621  61.3436924
  48.4876531  76.8115631  54.6565031  47.8450911  77.1048164  54.0104826
  47.9831459  76.6968551  55.4618228  46.1416694  80.5578804  45.3450890
  47.0534550  80.7906191  45.1698588  45.6326341  81.1415848  44.7825969
  38.9502122  82.8374291  60.3840021  39.6916807  83.3759335  60.1074845
  38.2439108  83.4640580  60.5411573  44.4257462  84.9803432  58.9812183
  44.8340818  84.5385842  58.2366815  43.7034723  84.4056059  59.2346376
  40.7788532  79.9176038  56.3545740  41.6249727  80.3415452  56.4980389
  40.7187170  79.2609663  57.0484303  44.7486277  85.5404622  52.7364472
  44.1195139  85.7050336  52.0340540  44.3611939  85.9546232  53.5075436
  48.6275508  86.4759060  50.0908835  47.9426547  86.8557961  49.5405869
  48.7119358  87.0854387  50.8240783  43.9287977  77.5780407  58.0126913
  43.6848909  78.3322467  57.4761189  44.2047908  77.9565754  58.8474160
  45.8826440  84.1219019  56.6904179  46.0943335  84.7650779  56.0138560
  45.8356188  83.2881336  56.2226109  43.4852669  76.7336840  53.5940751
  42.6237148  77.0318093  53.8857489  43.5115104  76.9507239  52.6621784
  40.3014238  85.2779030  50.0014557  40.7652584  85.5566733  49.2119179
  40.0371036  84.3762475  49.8187647  37.6863486  79.9913939  61.1855331
  37.0562147  80.6730220  61.4190728  37.5799574  79.8797021  60.2408470
  46.9972268  86.9990975  54.8626536  47.8189712  86.5971162  54.5809218
  46.9934671  86.8959209  55.8142652  40.7628871  86.5475018  57.0187247
  40.8273304  87.0095425  57.8545419  40.0539795  85.9172383  57.1469557
  55.0878261  83.3429723  51.2111508  54.3341969  82.7737121  51.0555512
  55.2225802  83.3092388  52.1582142  40.4776889  88.2143125  46.8866227
  40.3422564  89.0594661  47.3151075  41.0186702  88.4162403  46.1232161
  33.9306286  85.7318563  47.4594152  34.4430807  86.5261814  47.6099717
  34.5828999  85.0344854  47.3927754  35.7401171  88.8484320  49.5416905
  35.9167799  89.7702284  49.3537889  36.5358005  88.5342739  49.9711285
  42.1045365  88.8366692  61.0166569  41.6609220  88.0503070  60.6987474
  42.7662579  89.0245842  60.3510460  36.8632487  90.3662493  55.5427248
  37.4139912  90.2379557  54.7704242  36.0243963  90.6657382  55.1922141
  44.2026603  89.1169492  59.0447971  44.1845079  89.9378373  58.5528240
  45.1246524  88.9923567  59.2698112  40.6599658  86.6313621  59.8871479
  41.1927994  85.8701909  59.6570787  40.1313739  86.3387273  60.6295633
  48.7653909  84.4814653  45.8590729  47.9883352  84.1425812  45.4145891
  49.4445390  84.4867276  45.1845694  42.0252370  85.7599614  47.3990291
  41.4973732  85.0252373  47.0863528  41.5239873  86.5374290  47.1530259
  47.0045216  83.9548634  52.5157337  46.3468891  84.6447896  52.6037466
  47.8085616  84.3445066  52.8591324  45.8150675  82.3093007  50.5661279
  46.3282557  82.9422999  51.0682989  46.4651899  81.7094202  50.2004639
  43.0773049  92.2877331  43.3221950  42.4034748  92.5909028  43.9306908
  43.4638871  93.0906412  42.9727407  42.2931506  79.7842462  52.8119619
  41.3754067  80.0057409  52.6541308  42.7091650  79.8588773  51.9531327
  43.0766554  81.1833878  47.9422300  43.8238373  81.6955275  47.6329422
  43.3458143  80.8617931  48.8026693  46.5812471  87.2899008  48.6940422
  46.1274798  86.4489918  48.7505612  45.9506438  87.9260407  49.0315202
  45.5245391  78.2190994  49.9241089  44.7868148  77.7068381  50.2551332
  45.7772164  77.7791376  49.1124366  45.0245411  89.1275505  49.6290240
  45.3168385  89.6880562  48.9102605  45.5344031  89.4204066  50.3843399
  39.8978098  81.2921039  51.0259049  39.9526708  80.3394876  50.9501526
  39.0869300  81.4480479  51.5100348  41.0469292  85.2201163  42.2637333
  40.6088722  84.5037021  41.8042970  41.7879733  85.4477277  41.7022424
  39.9879036  89.9055856  50.7183693  39.9455215  90.1316702  49.7892225
  40.9041735  89.6719231  50.8669494  43.4344670  80.3739924  57.6164322
  43.7894057  80.6011397  58.4758788  44.0816801  80.7058300  56.9941577
  49.1642407  83.4958360  48.3213651  49.0260305  83.6859956  47.3934840
  48.8078625  84.2577742  48.7781702  49.1911786  85.5634887  53.3324923
  49.6248293  85.4710176  54.1807977  49.9043367  85.5392387  52.6944939
  38.1044837  86.7818885  50.5145656  38.8985435  86.2869205  50.3128231
  37.3936529  86.2536748  50.1513361  42.9239681  89.1636981  54.8658023
  42.9776703  89.7327917  55.6335739  42.0554462  89.3338866  54.5012060
  50.0527336  85.6058587  55.8657808  50.2463226  86.5104398  56.1117083
  49.9527954  85.1466006  56.6996393  45.1142444  85.7565330  61.4398689
  44.9627951  85.5275882  60.5228772  45.1047124  86.7135931  61.4530034
  41.8827781  83.3297243  56.4244955  42.8119841  83.4808402  56.2513922
  41.4618811  83.4181264  55.5693602  40.6816113  87.3547907  54.1943493
  40.5427198  86.9866692  55.0669431  39.8930709  87.8695547  54.0227451
  41.2764265  92.4557004  45.5369029  41.4516020  91.9845047  46.3514652
  40.5897053  93.0822770  45.7650290  42.2321328  86.7329510  51.5832331
  41.8971160  86.6930280  52.4789980  41.7325273  86.0674226  51.1102741
  36.2065572  82.1397140  57.1084912  36.0685370  81.4077379  57.7096451
  37.1170495  82.0506040  56.8269099  45.1680519  84.0785544  41.8569390
  44.5509690  83.3532372  41.7602443  44.6997008  84.8394904  41.5136464
  38.8347872  81.8517099  56.5968591  39.5447491  81.2110291  56.5555210
  38.7917181  82.1029994  57.5194772  46.8234651  88.7884453  59.5175171
  46.7647197  88.1043673  58.8505754  47.2254169  89.5303443  59.0655797
  35.8425350  95.6046366  52.3108889  36.0821948  96.2364891  52.9887908
  34.9994546  95.2534406  52.5974249  46.8252058  86.7524036  57.7489150
  45.9378837  86.4149958  57.8715549  47.3950609  86.0207068  57.9857916
  40.3553212  91.4125489  54.7150393  40.2823383  92.2180460  55.2269698
  39.9130605  91.6117455  53.8898415  40.1442991  90.6497259  48.2253215
  39.3610513  91.1918939  48.3191439  40.8435737  91.1671238  48.6247456
  51.3069399  82.1632254  52.5105712  51.2959275  83.0456969  52.1399645
  50.4386778  81.8103805  52.3160249  42.8151895  91.3112323  56.8708552
  43.5279867  91.9459788  56.7984454  42.3241924  91.4076189  56.0548554
  44.5369422  85.2163576  48.4425844  43.6025701  85.3365038  48.2730548
  44.7146091  84.3136042  48.1785854  47.9241973  81.0580895  48.9775878
  48.3902426  81.8908886  48.9036181  48.3749474  80.5925876  49.6821136
  37.8663809  89.0606766  57.6914123  38.5673268  89.6943249  57.8443517
  37.3958924  89.4021498  56.9309762  45.9918205  87.4024716  45.9762030
  46.2678049  87.2881311  46.8855904  45.1222703  87.0042201  45.9374203
  45.6665095  81.6151374  55.5166673  45.0136545  81.8627281  54.8619126
  46.0445475  80.8015512  55.1829151  42.6272269  91.6511067  49.6194844
  42.8094663  90.8332723  50.0822596  43.4505255  91.8678759  49.1819734
  42.9614434  90.5779252  46.8809892  43.4902201  90.0671707  46.2680054
  43.2242654  90.2621782  47.7455425  41.7152668  82.3571185  62.0032710
  41.0393305  82.2565314  62.6735086  42.5380302  82.2010399  62.4668708
  33.4631527  88.5943121  54.6245226  34.0484964  87.8486809  54.7573130
  33.2656365  88.9047078  55.5081889  36.3170182  91.6294369  49.6407668
  35.6480557  92.1140496  49.1571708  36.1783052  91.8763589  50.5551046
  40.4575451  93.6638112  56.2390326  41.0093759  93.8269734  57.0039412
  40.7981644  94.2542550  55.5670351  45.3086325  88.4899370  62.0938981
  45.8526229  89.1029328  61.5993936  44.7273170  89.0478948  62.6105994
  43.5943838  91.6120088  53.2254008  43.4694977  90.8109828  52.7164954
  44.2522929  92.1066281  52.7367978  45.6578746  89.4129108  54.8533559
  44.7109082  89.2934459  54.7811885  46.0061519  88.5251606  54.9359820
  42.6625180  89.2081824  51.0537911  42.5150142  88.2798532  51.2345481
  43.4878673  89.2301915  50.5694986  46.2659301  90.0310383  52.1402784
  47.1905849  89.8253244  52.0027235  46.0974605  89.7826784  53.0492125
  39.2582298  77.0107923  52.6721662  39.2443867  76.1149016  52.3353960
  39.9754726  77.0178587  53.3059948  46.0554618  90.5496050  47.4964875
  46.2291495  89.9842473  46.7438727  46.5483509  91.3496945  47.3144365
  51.9094009  83.3132473  49.1155175  52.3525155  82.5639798  48.7174298
  51.0320519  83.3042610  48.7328907  47.0429790  89.8662815  44.5961773
  47.7380695  90.4869507  44.8149088  47.3852940  89.0158166  44.8714151
  48.9421213  87.3162520  46.1249104  49.4672537  87.6549793  45.3998424
  48.8543566  86.3809536  45.9412239  40.6041262  91.2296594  58.2538981
  40.9128388  90.9845741  59.1261680  41.4016744  91.4343232  57.7657851
  40.6261874  93.3834503  50.4844357  40.1866864  92.8910882  51.1777214
  41.3769991  92.8407471  50.2436432  33.1054213  89.5746044  50.4868985
  33.9312233  89.2749816  50.1067629  32.7548265  88.8053667  50.9358774
  38.0735746  88.9272513  52.5566659  37.4515755  88.2643218  52.2568887
  38.7440613  88.9533644  51.8740307  31.3062818  87.4932371  51.4457919
  30.4694726  87.0654545  51.2641920  31.2786463  87.6864814  52.3828710
  48.6315119  87.9495424  61.4300302  47.8410663  87.9319563  60.8904801
  48.3948474  88.4883718  62.1849339  48.7512994  84.7987890  58.7433031
  48.8010999  84.6337898  59.6848553  48.6426918  83.9315149  58.3530911
  37.6349253  87.4776436  46.0325119  37.7837373  88.1611900  45.3791792
  38.4415697  87.4581526  46.5474575  46.0416757  80.7818818  60.0592337
  46.9426620  80.6425283  59.7676335  46.1164731  80.9473273  60.9990515
  50.2531191  87.2184832  58.9875052  49.9616000  87.5814812  59.8238513
  49.6403322  86.5051840  58.8088384  51.4526874  84.7837712  51.5077622
  52.2873765  85.2227516  51.6715183  51.5886002  84.3076365  50.6885868
  48.5018379  82.3417446  57.4555110  48.9772501  82.5345093  56.6473961
  47.5783945  82.3976632  57.2098494  35.3901886  83.5041614  47.0386188
  35.1447928  82.6003944  47.2366398  35.5597801  83.5058764  46.0965666
  41.1344659  89.9724566  43.5036867  40.5618626  90.5914753  43.0507339
  41.7077452  90.5223928  44.0376789  47.2020048  79.2183206  55.6883416
  48.1537471  79.3181304  55.7095640  47.0323499  78.4261475  56.1981500
  45.2234428  76.3038790  55.8742817  44.6284360  76.5843802  55.1789305
  44.9384125  76.7932691  56.6459558  44.3541918  90.2561716  44.6345449
  45.2872592  90.1907278  44.8378325  44.2665131  91.0917983  44.1759982
  46.9829935  89.5727587  41.5949397  46.9043567  89.2387450  42.4885155
  47.8039602  90.0649355  41.5940869  49.6808126  82.4389326  54.8025715
  49.6484446  81.5005327  54.9885399  50.2908750  82.5173363  54.0691540
  49.8302615  79.2300370  54.8483999  49.3141663  78.4458826  54.6613927
  50.7142563  78.9019086  55.0130518  47.4913342  72.9741385  50.8079811
  47.2938163  72.6656473  51.6923143  48.1013047  73.7003024  50.9377741
  55.4984676  83.5005333  53.9431752  56.2288065  83.2390621  54.5039455
  54.8891622  82.7634055  53.9833820  53.5799973  81.6413196  54.5406203
  52.8533137  81.5069161  53.9322695  53.1647260  81.9490024  55.3462921
  41.4030150  85.3603125  62.3053576  42.3233159  85.5381724  62.4993623
  41.3679733  84.4159171  62.1533276  39.2720087  78.8437366  64.3379106
  39.1716814  79.7931723  64.2691198  39.0541630  78.5155605  63.4655177
  46.6265795  74.9650817  48.0655007  46.0464464  75.6235621  47.6833059
  46.3601728  74.1428162  47.6542424  39.1351358  82.2734505  63.1544168
  38.6518439  83.0734865  63.3608057  39.2212297  82.2842449  62.2011612
  35.0624695  86.1639039  55.1912602  36.0167949  86.1322982  55.1242533
  34.8637219  85.7029663  56.0062828  35.6524077  84.7340155  57.7583400
  36.4716966  85.2284234  57.7818237  35.9260885  83.8172123  57.7300967
  48.7605210  77.1497429  50.8365694  49.5365600  77.6393881  51.1090311
  48.0353344  77.5755483  51.2937564  51.1977768  77.8625048  51.8939635
  51.7922259  77.6220784  51.1832943  51.2704352  77.1432178  52.5213171
  33.4174924  91.7058659  52.2082800  33.2829392  90.9459060  51.6420798
  33.0006986  92.4299559  51.7411589  44.5533887  86.8895582  41.2159375
  45.2569737  87.0945585  41.8317031  43.8296536  87.4572344  41.4808459
  45.3831697  82.6405443  47.3361645  45.3266899  83.0973995  46.4969278
  45.9360040  81.8796128  47.1584488  49.1936503  78.4295175  48.1611765
  48.9373437  78.0291811  48.9919972  48.5689371  79.1438969  48.0361904
  53.5048841  81.1691249  50.6683056  52.9448399  81.2384438  51.4414618
  52.8992344  80.9932233  49.9482552  36.5744050  92.6027976  52.4201242
  36.4576434  93.5473408  52.3179933  35.7536496  92.3001537  52.8087042
  46.4620584  87.3278111  43.2657835  47.2966188  86.8959310  43.0835310
  46.3004927  87.1560125  44.1934730  46.1166476  83.8310225  44.6314174
  46.0615280  83.6654496  43.6902619  45.4912532  84.5386258  44.7876364
  43.4312384  86.1359137  63.9567737  44.3003543  86.3099789  63.5954372
  42.9519135  86.9553553  63.8343467  37.5998564  93.2556238  55.6357171
  38.5025811  93.2879848  55.9523666  37.3735934  92.3256689  55.6503507
  39.3552166  92.0087224  52.2967249  38.4047797  92.0089086  52.1831622
  39.6584652  91.2619959  51.7803284  55.0904859  97.8447763  53.3613012
  55.7283269  97.7254510  52.6576352  54.9725702  98.7928606  53.4200964
  51.8994566  97.7975191  53.2974537  51.5613077  97.6816255  52.4095071
  52.7684334  97.3966356  53.2775543  47.7581381  99.6510667  49.2871427
  47.1946246  99.5600604  48.5187715  47.6433776  98.8310572  49.7673920
  52.3814349  98.9510042  59.2560742  52.3702989  98.5562841  58.3841246
  52.5434988  98.2176115  59.8494514  45.3045813 101.1461859  52.1255648
  46.0967105 100.8052683  51.7101947  45.5442463 101.2556834  53.0457801
  53.3380940 103.3181635  44.5985892  52.6868920 103.9035715  44.2119906
  54.1325303 103.8487830  44.6580930  47.2636567 100.4070772  44.9973027
  48.0367443  99.8599759  44.8585903  47.6161966 101.2715021  45.2087488
  49.1021610 101.7347154  58.2039926  48.8111476 102.6392785  58.0886592
  49.7378594 101.7763682  58.9183996  50.0277817  99.1124003  54.7941286
  50.6241389  98.8880025  54.0798249  50.0852788  98.3708748  55.3966734
  49.6002845  96.5663438  42.6291477  49.8528366  96.0444959  41.8674940
  48.6627404  96.4029583  42.7318160  54.6446128  95.5699216  50.4366220
  55.4309217  95.1518640  50.0856637  54.9084832  96.4745309  50.6047868
  54.8156205 101.0072067  45.1354877  54.1802038 101.0806693  45.8475781
  54.4853612 101.5965666  44.4573956  60.0454555  95.5074450  51.3399198
  60.7779727  94.9373666  51.5737028  59.2893911  95.1196050  51.7805704
  49.3199134  98.4691544  44.8315852  49.2035392  97.7936447  45.4996936
  49.4301394  97.9823918  44.0148005  51.6630675  97.9301691  48.5362541
  51.2988882  97.4032312  49.2475462  52.5197791  97.5400160  48.3629026
  57.5679975  89.2196024  55.7993807  57.2363300  90.0891435  55.5755022
  56.9725589  88.9032308  56.4787837  51.3036162  92.9591591  43.5323889
  51.4710564  93.8271827  43.8994360  51.1133331  93.1218872  42.6085179
  54.0611495 101.4208570  55.1989720  53.7612218 102.3233609  55.0905527
  53.7162554 101.1540753  56.0510873  47.5123976  97.8722367  51.2326424
  46.5874473  97.7398581  51.4404116  47.7608390  98.6516586  51.7296367
  57.4608639  93.9391110  52.8787157  56.5525516  93.8706518  52.5845918
  57.4096234  94.4163055  53.7068983  51.2825383  95.4149248  44.5170556
  51.1625008  95.8606299  45.3556036  50.5877971  95.7634566  43.9584094
  44.8732787  97.5155640  52.0670213  45.0025169  97.7690119  52.9809625
  44.1930239  98.1083348  51.7474868  51.5349504  95.3580755  60.8222054
  50.7582838  95.9174676  60.8124919  52.1740067  95.8437538  61.3436924
  59.3270285  92.1407548  54.6565031  58.6844665  92.4340081  54.0104826
  58.8225214  92.0260469  55.4618228  56.9810449  95.8870721  45.3450890
  57.8928305  96.1198108  45.1698588  56.4720096  96.4707766  44.7825969
  49.7895877  98.1666209  60.3840021  50.5310561  98.7051253  60.1074845
  49.0832862  98.7932498  60.5411573  55.2651216 100.3095349  58.9812183
  55.6734572  99.8677760  58.2366815  54.5428478  99.7347977  59.2346376
  51.6182286  95.2467956  56.3545740  52.4643482  95.6707370  56.4980389
  51.5580924  94.5901580  57.0484303  55.5880031 100.8696540  52.7364472
  54.9588893 101.0342254  52.0340540  55.2005693 101.2838149  53.5075436
  59.4669263 101.8050978  50.0908835  58.7820301 102.1849879  49.5405869
  59.5513112 102.4146304  50.8240783  54.7681732  92.9072324  58.0126913
  54.5242664  93.6614385  57.4761189  55.0441662  93.2857672  58.8474160
  56.7220194  99.4510937  56.6904179  56.9337090 100.0942697  56.0138560
  56.6749943  98.6173253  56.2226109  54.3246423  92.0628757  53.5940751
  53.4630902  92.3610011  53.8857489  54.3508858  92.2799156  52.6621784
  51.1407993 100.6070948  50.0014557  51.6046338 100.8858651  49.2119179
  50.8764791  99.7054393  49.8187647  48.0332074 100.1542430  52.9394320
  48.6033431 100.5829698  52.3011805  48.6240186  99.8725014  53.6378506
  50.0776879  96.7294100  46.8104122  50.7800922  97.1815144  47.2778048
  49.7457507  96.0877919  47.4384015  48.5257240  95.3205857  61.1855331
  47.8955901  96.0022138  61.4190728  48.4193328  95.2088939  60.2408470
  43.8202213  94.9877653  52.1121255  43.0301267  95.2435182  51.6361366
  44.3113460  95.8025991  52.2173296  57.8366022 102.3282892  54.8626536
  58.6583466 101.9263079  54.5809218  57.8328425 102.2251126  55.8142652
  45.7716958  95.3522232  49.0704732  44.9748122  95.4640927  49.5888228
  45.5442550  95.6908885  48.2045623  51.6022626 101.8766936  57.0187247
  51.6667058 102.3387343  57.8545419  50.8933550 101.2464300  57.1469557
  42.1039916  95.2408143  54.5436246  42.3547954  96.1255153  54.8093822
  42.6399464  95.0612745  53.7711338  65.9272015  98.6721641  51.2111508
  65.1735724  98.1029039  51.0555512  66.0619557  98.6384305  52.1582142
  51.3170644 103.5435043  46.8866227  51.1816318 104.3886579  47.3151075
  51.8580456 103.7454321  46.1232161  47.8037983  89.6226623  63.5480582
  47.4104929  89.0692821  64.2228227  48.6204124  89.9337201  63.9387100
  44.7700041 101.0610481  47.4594152  45.2824561 101.8553731  47.6099717
  45.4222754 100.3636771  47.3927754  50.7205944  91.0384502  61.1400839
  51.4615658  91.6391655  61.0605301  50.9523867  90.2962140  60.5818881
  45.8647282  96.2240869  59.4179069  45.7500797  95.3226126  59.7186168
  45.0091800  96.4704566  59.0663885  52.9439120 104.1658610  61.0166569
  52.5002974 103.3794988  60.6987474  53.6056334 104.3537760  60.3510460
  55.0420358 104.4461409  59.0447971  55.0238833 105.2670290  58.5528240
  55.9640278 104.3215485  59.2698112  51.4993412 101.9605539  59.8871479
  52.0321749 101.1993827  59.6570787  50.9707493 101.6679191  60.6295633
  54.6663107  87.0665605  55.4165121  54.3227377  87.9567247  55.3404231
  55.0342070  86.8767263  54.5534706  42.7348958  99.3899135  48.2353723
  43.5724180  99.7996144  48.0187430  42.9127225  98.4498577  48.2053917
  54.6313390  97.0574216  43.9237556  54.1160013  97.8278821  44.1625943
  54.3590698  96.3839352  44.5470617  52.2160501  91.9023917  48.9822794
  51.3602097  91.5130767  48.8028433  52.6287453  91.9815878  48.1222580
  53.7459647  89.4370260  53.3814354  53.2424443  89.4000395  52.5682159
  54.0390254  90.3463003  53.4411011  49.9902533  89.5208990  52.3880536
  50.8555530  89.3251798  52.0286425  50.0580042  89.2919342  53.3149892
  59.6047664  99.8106571  45.8590729  58.8277107  99.4717730  45.4145891
  60.2839145  99.8159194  45.1845694  54.4199693  94.9301308  45.7497337
  54.1149829  95.2447457  46.6007480  55.3730135  95.0082728  45.7924670
  52.8646125 101.0891531  47.3990291  52.3367486 100.3544291  47.0863528
  52.3633628 101.8666208  47.1530259  57.8438971  99.2840552  52.5157337
  57.1862645  99.9739813  52.6037466  58.6479370  99.6736984  52.8591324
  47.5964852  91.7511198  49.7596902  48.1708604  91.5286379  49.0270095
  48.1835835  91.8199892  50.5125504  56.6544430  97.6384925  50.5661279
  57.1676311  98.2714916  51.0682989  57.3045654  97.0386120  50.2004639
  47.9234440  93.7815659  43.7792788  47.0871752  94.1190345  44.1002062
  47.7839209  93.6464638  42.8419925  49.8987520  88.6252447  48.4871972
  49.2451933  88.3101464  47.8628587  49.8567994  88.0028187  49.2131795
  51.0098725  98.9071742  40.4025264  50.1025787  98.6760995  40.6016413
  51.5069757  98.1109361  40.5899245  53.1325261  95.1134380  52.8119619
  52.2147822  95.3349327  52.6541308  53.5485404  95.1880691  51.9531327
  53.9160308  96.5125796  47.9422300  54.6632127  97.0247193  47.6329422
  54.1851898  96.1909849  48.8026693  52.1886958  99.0084337  44.9249254
  51.2798178  98.7243369  45.0221724  52.2182042  99.4283415  44.0652561
  57.4206226 102.6190926  48.6940422  56.9668553 101.7781836  48.7505612
  56.7900193 103.2552324  49.0315202  56.3639145  93.5482912  49.9241089
  55.6261902  93.0360298  50.2551332  56.6165919  93.1083294  49.1124366
  55.8639165 104.4567423  49.6290240  56.1562139 105.0172480  48.9102605
  56.3737786 104.7495984  50.3843399  56.4650773  86.3259164  50.5182858
  56.7709650  85.4656527  50.2308773  57.1903378  86.9176784  50.3181852
  42.7575129  96.7289851  48.9064456  42.5599529  96.1359211  48.1815523
  42.2021793  96.4242061  49.6240395  50.7371853  96.6212957  51.0259049
  50.7920462  95.6686794  50.9501526  49.9263055  96.7772396  51.5100348
  51.8863046 100.5493080  42.2637333  51.4482476  99.8328939  41.8042970
  52.6273487 100.7769195  41.7022424  48.6764212  95.2390017  48.7849428
  47.8632078  95.5384187  49.1914620  49.1723207  94.8445706  49.5023910
  50.8272790 105.2347774  50.7183693  50.7848969 105.4608620  49.7892225
  51.7435489 105.0011148  50.8669494  54.2738424  95.7031841  57.6164322
  54.6287812  95.9303314  58.4758788  54.9210555  96.0350218  56.9941577
  60.0036161  98.8250277  48.3213651  59.8654060  99.0151873  47.3934840
  59.6472380  99.5869660  48.7781702  48.1678287  92.8108372  54.4010663
  48.8077667  92.6697131  53.7033626  47.3355818  92.5242886  54.0249265
  60.0305541 100.8926804  53.3324923  60.4642047 100.8002093  54.1807977
  60.7437121 100.8684305  52.6944939  48.9438591 102.1110803  50.5145656
  49.7379190 101.6161123  50.3128231  48.2330283 101.5828666  50.1513361
  53.7633436 104.4928898  54.8658023  53.8170458 105.0619835  55.6335739
  52.8948217 104.6630783  54.5012060  45.2521355  96.2553885  46.5905408
  44.3218943  96.1938340  46.8075370  45.3478827  95.7329837  45.7942050
  45.1706904  92.7808697  49.1783650  45.4313721  93.6954031  49.0692810
  45.9924076  92.3133140  49.3280263  46.6431829  94.1946455  56.3482475
  47.3154882  93.9863817  55.6995123  45.8161615  93.9968541  55.9087707
  60.8921090 100.9350505  55.8657808  61.0856980 101.8396315  56.1117083
  60.7921708 100.4757924  56.6996393  52.5457401  90.8208395  58.3648135
  51.8985316  91.5198345  58.2712612  53.3158416  91.2544539  58.7324384
  55.9536199 101.0857248  61.4398689  55.8021705 100.8567799  60.5228772
  55.9440878 102.0427849  61.4530034  52.7221535  98.6589160  56.4244955
  53.6513595  98.8100320  56.2513922  52.3012565  98.7473181  55.5693602
  51.5209867 102.6839825  54.1943493  51.3820953 102.3158609  55.0669431
  50.7324463 103.1987464  54.0227451  53.0715082 102.0621427  51.5832331
  52.7364915 102.0222197  52.4789980  52.5719028 101.3966143  51.1102741
  47.0459326  97.4689058  57.1084912  46.9079124  96.7369296  57.7096451
  47.9564250  97.3797958  56.8269099  56.0074274  99.4077462  41.8569390
  55.3903445  98.6824290  41.7602443  55.5390762 100.1686822  41.5136464
  49.6741627  97.1809017  56.5968591  50.3841245  96.5402209  56.5555210
  49.6310935  97.4321912  57.5194772  57.6628406 104.1176370  59.5175171
  57.6040952 103.4335590  58.8505754  58.0647924 104.8595360  59.0655797
  48.3870561  94.1674235  58.4164231  47.8507918  93.7164973  59.0685827
  47.7987269  94.3020144  57.6734695  47.7972820  93.6262886  40.9790694
  46.9202286  93.5051687  40.6152941  48.2730573  92.8348964  40.7269583
  57.6645813 102.0815954  57.7489150  56.7772592 101.7441876  57.8715549
  58.2344364 101.3498985  57.9857916  39.3174960  98.4140046  51.0732202
  40.0046000  98.1001776  50.4853217  39.1623089  99.3181411  50.7999453
  44.1209682  93.3030242  55.5017225  44.0367871  92.6955912  54.7667635
  43.2992388  93.7939261  55.5026722  54.2933396  91.7883806  50.8687420
  54.7902095  91.0353768  50.5488491  53.5220377  91.8248123  50.3030630
  62.1463153  97.4924171  52.5105712  62.1353030  98.3748887  52.1399645
  61.2780533  97.1395722  52.3160249  53.6545650 106.6404241  56.8708552
  54.3673622 107.2751705  56.7984454  53.1635678 106.7368107  56.0548554
  55.3763177 100.5455493  48.4425844  54.4419455 100.6656956  48.2730548
  55.5539845  99.6427960  48.1785854  50.8768365  93.9301189  50.5959105
  50.5066152  93.3772229  51.2840011  51.3727457  93.3259322  50.0434105
  58.7635728  96.3872812  48.9775878  59.2296180  97.2200804  48.9036181
  59.2143228  95.9217794  49.6821136  48.7057563 104.3898684  57.6914123
  49.4067023 105.0235167  57.8443517  48.2352678 104.7313416  56.9309762
  56.8311959 102.7316634  45.9762030  57.1071803 102.6173228  46.8855904
  55.9616458 102.3334119  45.9374203  56.7352391  88.7553399  53.0166779
  55.8215471  88.9857626  53.1848986  57.1645492  88.8391844  53.8680812
  56.5058849  96.9443291  55.5166673  55.8530299  97.1919199  54.8619126
  56.8839229  96.1307430  55.1829151  53.4666023 106.9802985  49.6194844
  53.6488418 106.1624641  50.0822596  54.2899009 107.1970677  49.1819734
  53.8008189 105.9071170  46.8809892  54.3295955 105.3963624  46.2680054
  54.0636408 105.5913700  47.7455425  52.5546422  97.6863102  62.0032710
  51.8787059  97.5857232  62.6735086  53.3774056  97.5302316  62.4668708
  38.8942936  96.4940639  53.3449669  38.9327036  95.9604230  54.1386787
  38.3883229  95.9675845  52.7260646  46.2733698  91.3405180  56.8412211
  46.3375025  92.2020011  56.4289609  46.2100819  90.7279181  56.1084570
  45.7485971  93.4128312  60.4885245  46.3758010  93.0305390  61.1022770
  44.8913890  93.1942514  60.8540938  56.1480079 103.8191287  62.0938981
  56.6919983 104.4321246  61.5993936  55.5666924 104.3770866  62.6105994
  42.5251514  95.2204741  46.4203600  42.8204955  94.3115420  46.3670654
  41.6239549  95.1992481  46.0984602  54.4337592 106.9412005  53.2254008
  54.3088732 106.1401745  52.7164954  55.0916684 107.4358199  52.7367978
  46.0545761  93.2960738  52.4031149  45.3332346  93.9096706  52.2638622
  46.8439016  93.8318503  52.3247795  56.4972501 104.7421026  54.8533559
  55.5502836 104.6226377  54.7811885  56.8455274 103.8543524  54.9359820
  48.8572074  90.6315164  58.6771800  49.3806476  90.8777461  59.4398110
  48.6384407  91.4635199  58.2574938  44.2539355  92.9018839  46.5442925
  43.9252061  92.0216218  46.3618031  44.6078726  92.8466508  47.4319315
  53.5018934 104.5373742  51.0537911  53.3543897 103.6090449  51.2345481
  54.3272428 104.5593832  50.5694986  47.3681178  93.1891809  46.9118403
  47.7077251  93.7177730  46.1897011  47.8153299  93.5272215  47.6876969
  57.1053056 105.3602300  52.1402784  58.0299603 105.1545162  52.0027235
  56.9368359 105.1118702  53.0492125  50.0624619  91.5728860  56.3621471
  49.7221440  90.7736673  56.7642151  49.3563625  91.8730570  55.7898304
  50.7141091  88.6578172  54.8148794  51.5367160  88.1838650  54.6927684
  50.9579155  89.4368656  55.3147480  49.3549326  91.6866430  45.1111696
  50.0757688  92.0647683  44.6075413  48.7314630  92.4055307  45.2146674
  53.4980448  92.3911579  46.0470028  53.7144063  93.2736217  45.7458856
  53.0174516  91.9997793  45.3175670  48.2379670  95.3497293  52.6240773
  48.0924251  95.6637596  53.5165054  47.7604873  95.9682193  52.0711671
  50.0976053  92.3399841  52.6721662  50.0837621  91.4440934  52.3353960
  50.8148481  92.3470504  53.3059948  51.9502183  92.7737181  54.7174790
  51.6919961  93.6954251  54.7159120  51.4187224  92.3767615  55.4075254
  56.8948372 105.8787968  47.4964875  57.0685250 105.3134390  46.7438727
  57.3877263 106.6788863  47.3144365  42.7125332  97.8902637  55.5628434
  42.1678800  98.6662445  55.6948708  43.5904682  98.2373442  55.4047555
  49.5012949  91.2214221  47.9409232  49.6228860  90.2930867  48.1400120
  49.2114991  91.2352907  47.0287548  52.3704139  88.9069131  51.0775952
  52.3925836  88.9708464  50.1227932  52.7872198  88.0673640  51.2716458
  62.7487763  98.6424391  49.1155175  63.1918909  97.8931716  48.7174298
  61.8714274  98.6334527  48.7328907  57.8823545 105.1954732  44.5961773
  58.5774449 105.8161425  44.8149088  58.2246695 104.3450084  44.8714151
  43.4991354  97.0172533  58.4558591  42.7573090  97.1655169  59.0423221
  43.1784098  97.2780799  57.5925340  59.7814968 102.6454438  46.1249104
  60.3066292 102.9841711  45.3998424  59.6937320 101.7101453  45.9412239
  48.9129501 104.2564430  52.5566659  48.2909510 103.5935135  52.2568887
  49.5834368 104.2825562  51.8740307  42.1456573 102.8224288  51.4457919
  41.3088481 102.3946463  51.2641920  42.1180218 103.0156732  52.3828710
  48.9854028  92.7346218  62.1499165  49.0342184  93.6108341  61.7676935
  49.5276542  92.1923611  61.5770808  59.4708874 103.2787342  61.4300302
  58.6804418 103.2611480  60.8904801  59.2342228 103.8175635  62.1849339
  59.5906749 100.1279808  58.7433031  59.6404754  99.9629815  59.6848553
  59.4820672  99.2607067  58.3530911  48.4743008 102.8068354  46.0325119
  48.6231128 103.4903818  45.3791792  49.2809451 102.7873444  46.5474575
  56.8810511  96.1110736  60.0592337  57.7820374  95.9717201  59.7676335
  56.9558486  96.2765191  60.9990515  51.2153317  93.4877591  58.9045524
  50.3456626  93.7811157  58.6328112  51.4512797  94.0718036  59.6252787
  61.0924946 102.5476749  58.9875052  60.8009754 102.9106730  59.8238513
  60.4797077 101.8343758  58.8088384  62.2920628 100.1129629  51.5077622
  63.1267519 100.5519433  51.6715183  62.4279757  99.6368282  50.6885868
  59.3412134  97.6709364  57.4555110  59.8166256  97.8637010  56.6473961
  58.4177699  97.7268550  57.2098494  46.2295641  98.8333531  47.0386188
  45.9841682  97.9295861  47.2366398  46.3991555  98.8350682  46.0965666
  53.9192350  89.7057208  56.4210944  54.4374294  90.4418235  56.0957433
  53.5647483  90.0121201  57.2557703  45.4991288  94.5661889  44.5372350
  44.8060533  94.6406244  43.8812386  45.2543040  93.8022232  45.0593867
  54.1704945  86.1257490  51.9411841  54.4506698  85.4580679  52.5672267
  54.9555552  86.3186586  51.4286504  51.9738413 105.3016484  43.5036867
  51.4012380 105.9206671  43.0507339  52.5471207 105.8515846  44.0376789
  58.0413803  94.5475124  55.6883416  58.9931226  94.6473222  55.7095640
  57.8717253  93.7553393  56.1981500  56.0628182  91.6330707  55.8742817
  55.4678115  91.9135720  55.1789305  55.7777879  92.1224608  56.6459558
  55.1935673 105.5853634  44.6345449  56.1266346 105.5199196  44.8378325
  55.1058886 106.4209901  44.1759982  57.8223690 104.9019505  41.5949397
  57.7437321 104.5679368  42.4885155  58.6433356 105.3941272  41.5940869
  60.5201881  97.7681244  54.8025715  60.4878201  96.8297245  54.9885399
  61.1302504  97.8465281  54.0691540  52.3585212  96.6377297  40.8452919
  53.3044316  96.5083505  40.9141337  51.9799457  95.8991959  41.3222348
  60.6696369  94.5592287  54.8483999  60.1535418  93.7750744  54.6613927
  61.5536318  94.2311004  55.0130518  58.3307096  88.3033303  50.8079811
  58.1331917  87.9948391  51.6923143  58.9406802  89.0294942  50.9377741
  66.3378431  98.8297251  53.9431752  67.0681819  98.5682539  54.5039455
  65.7285376  98.0925973  53.9833820  64.4193728  96.9705113  54.5406203
  63.6926891  96.8361078  53.9322695  64.0041015  97.2781942  55.3462921
  52.2423904 100.6895043  62.3053576  53.1626914 100.8673642  62.4993623
  52.2073487  99.7451088  62.1533276  50.5428129  94.5627273  40.7807805
  49.6359584  94.2660386  40.8570518  50.8204110  94.2657091  39.9142091
  41.4606069  95.8833637  51.2306851  41.1408853  95.0298945  50.9381225
  40.9139497  96.0982215  51.9864818  45.2385977  98.5996078  54.9476358
  45.4571986  99.5313185  54.9664391  45.6511750  98.2404052  55.7331161
  52.1590194  89.1064163  46.9352046  51.3490923  88.7611248  47.3107292
  52.8474611  88.7971707  47.5239657  54.0880743  88.1842210  48.5576343
  54.6411781  88.6037663  49.2166366  54.3250829  87.2577958  48.5999299
  50.1113842  94.1729283  64.3379106  50.0110569  95.1223640  64.2691198
  49.8935384  93.8447522  63.4655177  49.3126913  91.4214208  40.9219784
  50.1746077  91.7469107  41.1815601  49.4977258  90.6345704  40.4092850
  41.3294329  99.5036548  53.1999973  40.6357801  99.0890501  52.6869927
  42.0767320  99.5457085  52.6033391  57.4659550  90.2942735  48.0655007
  56.8858219  90.9527539  47.6833059  57.1995483  89.4720079  47.6542424
  55.9163116  89.6947793  50.2676327  56.4162895  89.8064327  49.4590646
  56.5598724  89.3908845  50.9077136  49.9745112  97.6026422  63.1544168
  49.4912194  98.4026782  63.3608057  50.0606051  97.6134367  62.2011612
  43.2431072  99.4354802  51.0765987  43.2201760  99.5342489  50.1247871
  43.5531708 100.2819953  51.3983154  45.9018450 101.4930957  55.1912602
  46.8561703 101.4614899  55.1242533  45.7030973 101.0321581  56.0062828
  46.4917832 100.0632073  57.7583400  47.3110721 100.5576152  57.7818237
  46.7654639  99.1464041  57.7300967  56.2484428  92.4542825  47.1211355
  55.3610283  92.7392476  46.9031550  56.6638417  92.2936589  46.2738632
  59.5998964  92.4789346  50.8365694  60.3759354  92.9685799  51.1090311
  58.8747098  92.9047400  51.2937564  62.0371523  93.1916965  51.8939635
  62.6316013  92.9512701  51.1832943  62.1098106  92.4724096  52.5213171
  55.3927641 102.2187500  41.2159375  56.0963491 102.4237502  41.8317031
  54.6690290 102.7864262  41.4808459  56.2225452  97.9697361  47.3361645
  56.1660653  98.4265913  46.4969278  56.7753794  97.2088046  47.1584488
  60.0330258  93.7587093  48.1611765  59.7767192  93.3583729  48.9919972
  59.4083126  94.4730887  48.0361904  64.3442595  96.4983166  50.6683056
  63.7842153  96.5676356  51.4414618  63.7386099  96.3224151  49.9482552
  57.3014339 102.6570029  43.2657835  58.1359943 102.2251228  43.0835310
  57.1398682 102.4852043  44.1934730  56.9560231  99.1602142  44.6314174
  56.9009035  98.9946414  43.6902619  56.3306286  99.8678175  44.7876364
  41.7452746  94.3970207  58.4575597  42.3911610  93.8869161  58.9462822
  41.5369897  95.1338888  59.0319022  54.2706138 101.4651054  63.9567737
  55.1397298 101.6391707  63.5954372  53.7912890 102.2845471  63.8343467
  50.2656356  88.6610251  44.2099493  50.2535026  89.6052091  44.3667764
  51.1579778  88.4780397  43.9158954  54.0808476  85.2553028  48.4645430
  53.3140872  84.7011515  48.6102112  54.4919181  85.3274897  49.3259581
  46.0850237  91.5437824  62.5550611  46.9481698  91.1874629  62.7653935
  45.5115648  91.2051719  63.2426015  70.8848309 110.8366367  51.3399198
  71.6173481 110.2665584  51.5737028  70.1287665 110.4487968  51.7805704
  68.4073730 104.5487941  55.7993807  68.0757055 105.4183352  55.5755022
  67.8119343 104.2324225  56.4787837  62.1429916 108.2883508  43.5323889
  62.3104318 109.1563745  43.8994360  61.9527085 108.4510790  42.6085179
  68.3002393 109.2683028  52.8787157  67.3919270 109.1998436  52.5845918
  68.2489989 109.7454972  53.7068983  70.1664040 107.4699466  54.6565031
  69.5238420 107.7631999  54.0104826  69.6618968 107.3552386  55.4618228
  67.8204203 111.2162639  45.3450890  68.7322059 111.4490026  45.1698588
  67.3113850 111.7999683  44.7825969  65.6075486 108.2364242  58.0126913
  65.3636418 108.9906303  57.4761189  65.8835417 108.6149590  58.8474160
  65.1640178 107.3920675  53.5940751  64.3024657 107.6901929  53.8857489
  65.1902613 107.6091074  52.6621784  58.6431738 104.9518541  63.5480582
  58.2498683 104.3984739  64.2228227  59.4597878 105.2629119  63.9387100
  61.5599699 106.3676420  61.1400839  62.3009412 106.9683573  61.0605301
  61.7917621 105.6254057  60.5818881  65.5056862 102.3957523  55.4165121
  65.1621131 103.2859164  55.3404231  65.8735824 102.2059180  54.5534706
  63.0554255 107.2315834  48.9822794  62.1995852 106.8422685  48.8028433
  63.4681207 107.3107795  48.1222580  64.5853402 104.7662178  53.3814354
  64.0818198 104.7292313  52.5682159  64.8784009 105.6754920  53.4411011
  60.8296288 104.8500907  52.3880536  61.6949285 104.6543716  52.0286425
  60.8973797 104.6211259  53.3149892  65.2593447 110.2593226  45.7497337
  64.9543583 110.5739375  46.6007480  66.2123890 110.3374646  45.7924670
  58.4358607 107.0803115  49.7596902  59.0102359 106.8578297  49.0270095
  59.0229589 107.1491810  50.5125504  60.7381275 103.9544364  48.4871972
  60.0845687 103.6393381  47.8628587  60.6961749 103.3320105  49.2131795
  67.2032900 108.8774830  49.9241089  66.4655657 108.3652216  50.2551332
  67.4559673 108.4375211  49.1124366  67.3044527 101.6551082  50.5182858
  67.6103404 100.7948445  50.2308773  68.0297132 102.2468702  50.3181852
  65.1132179 111.0323759  57.6164322  65.4681566 111.2595232  58.4758788
  65.7604310 111.3642136  56.9941577  59.0072042 108.1400290  54.4010663
  59.6471421 107.9989049  53.7033626  58.1749572 107.8534803  54.0249265
  63.3851155 106.1500313  58.3648135  62.7379070 106.8490263  58.2712612
  64.1552171 106.5836457  58.7324384  65.1327150 107.1175724  50.8687420
  65.6295850 106.3645686  50.5488491  64.3614132 107.1540040  50.3030630
  61.7162119 109.2593107  50.5959105  61.3459907 108.7064147  51.2840011
  62.2121212 108.6551240  50.0434105  67.5746145 104.0845317  53.0166779
  66.6609225 104.3149544  53.1848986  68.0039247 104.1683761  53.8680812
  57.1127453 106.6697097  56.8412211  57.1768779 107.5311928  56.4289609
  57.0494573 106.0571099  56.1084570  59.6965829 105.9607082  58.6771800
  60.2200230 106.2069379  59.4398110  59.4778162 106.7927117  58.2574938
  60.9018374 106.9020777  56.3621471  60.5615194 106.1028590  56.7642151
  60.1957380 107.2022488  55.7898304  61.5534846 103.9870090  54.8148794
  62.3760915 103.5130568  54.6927684  61.7972909 104.7660573  55.3147480
  60.1943080 107.0158348  45.1111696  60.9151443 107.3939601  44.6075413
  59.5708384 107.7347225  45.2146674  64.3374203 107.7203497  46.0470028
  64.5537817 108.6028135  45.7458856  63.8568270 107.3289710  45.3175670
  60.9369807 107.6691758  52.6721662  60.9231376 106.7732852  52.3353960
  61.6542235 107.6762422  53.3059948  62.7895938 108.1029099  54.7174790
  62.5313716 109.0246169  54.7159120  62.2580978 107.7059533  55.4075254
  60.3406703 106.5506139  47.9409232  60.4622614 105.6222785  48.1400120
  60.0508745 106.5644825  47.0287548  63.2097893 104.2361049  51.0775952
  63.2319590 104.3000382  50.1227932  63.6265952 103.3965558  51.2716458
  59.8247783 108.0638136  62.1499165  59.8735938 108.9400259  61.7676935
  60.3670297 107.5215529  61.5770808  67.7204266 111.4402654  60.0592337
  68.6214129 111.3009118  59.7676335  67.7952240 111.6057108  60.9990515
  62.0547071 108.8169508  58.9045524  61.1850380 109.1103074  58.6328112
  62.2906551 109.4009953  59.6252787  64.7586105 105.0349125  56.4210944
  65.2768049 105.7710152  56.0957433  64.4041238 105.3413119  57.2557703
  65.0098699 101.4549408  51.9411841  65.2900453 100.7872597  52.5672267
  65.7949306 101.6478503  51.4286504  68.8807557 109.8767042  55.6883416
  69.8324980 109.9765139  55.7095640  68.7111008 109.0845310  56.1981500
  66.9021937 106.9622625  55.8742817  66.3071869 107.2427638  55.1789305
  66.6171634 107.4516526  56.6459558  71.5090124 109.8884205  54.8483999
  70.9929172 109.1042662  54.6613927  72.3930072 109.5602922  55.0130518
  69.1700851 103.6325220  50.8079811  68.9725672 103.3240309  51.6923143
  69.7800556 104.3586859  50.9377741  61.3821883 109.8919191  40.7807805
  60.4753339 109.5952304  40.8570518  61.6597864 109.5949009  39.9142091
  62.9983949 104.4356081  46.9352046  62.1884677 104.0903166  47.3107292
  63.6868366 104.1263624  47.5239657  64.9274497 103.5134127  48.5576343
  65.4805536 103.9329581  49.2166366  65.1644584 102.5869875  48.5999299
  60.1520668 106.7506126  40.9219784  61.0139832 107.0761024  41.1815601
  60.3371012 105.9637622  40.4092850  68.3053304 105.6234653  48.0655007
  67.7251973 106.2819457  47.6833059  68.0389237 104.8011997  47.6542424
  66.7556871 105.0239710  50.2676327  67.2556649 105.1356245  49.4590646
  67.3992479 104.7200763  50.9077136  67.0878182 107.7834743  47.1211355
  66.2004037 108.0684394  46.9031550  67.5032171 107.6228506  46.2738632
  70.4392718 107.8081264  50.8365694  71.2153109 108.2977716  51.1090311
  69.7140853 108.2339318  51.2937564  72.8765277 108.5208883  51.8939635
  73.4709768 108.2804619  51.1832943  72.9491861 107.8016014  52.5213171
  70.8724012 109.0879011  48.1611765  70.6160946 108.6875646  48.9919972
  70.2476880 109.8022805  48.0361904  61.1050111 103.9902169  44.2099493
  61.0928781 104.9344009  44.3667764  61.9973533 103.8072315  43.9158954
  64.9202230 100.5844946  48.4645430  64.1534626 100.0303432  48.6102112
  65.3312935 100.6566815  49.3259581  56.9243991 106.8729742  62.5550611
  57.7875453 106.5166546  62.7653935  56.3509402 106.5343636  63.2426015
  11.7329843  13.5342214  40.0858318  12.3708253  13.4148962  39.3821659
  11.6150686  14.4823058  40.1446271   8.5419549  13.4869643  40.0219843
   8.2038060  13.3710707  39.1340378   9.4109317  13.0860808  40.0020849
   4.4006365  15.3405119  36.0116734   3.8371230  15.2495056  35.2433022
   4.2858760  14.5205023  36.4919227   9.0239332  14.6404494  45.9806049
   9.0127973  14.2457293  45.1086552   9.1859971  13.9070567  46.5739820
   1.9470797  16.8356311  38.8500955   2.7392088  16.4947135  38.4347254
   2.1867447  16.9451286  39.7703108   9.9805923  19.0076087  31.3231199
   9.3293903  19.5930167  30.9365213  10.7750286  19.5382282  31.3826236
   3.9061550  16.0965224  31.7218333   4.6792426  15.5494211  31.5831209
   4.2586949  16.9609473  31.9332795   5.7446593  17.4241606  44.9285233
   5.4536459  18.3287237  44.8131899   6.3803577  17.4658134  45.6429302
   6.6702800  14.8018455  41.5186592   7.2666372  14.5774477  40.8043555
   6.7277771  14.0603200  42.1212040  11.2871111  11.2593668  37.1611527
  12.0734200  10.8413091  36.8101944  11.5509815  12.1639760  37.3293175
  11.4581188  16.6966519  31.8600183  10.8227021  16.7701145  32.5721088
  11.1278595  17.2860117  31.1819263  16.6879538  11.1968901  38.0644505
  17.4204710  10.6268118  38.2982335  15.9318894  10.8090502  38.5051011
   5.9624117  14.1585996  31.5561158   5.8460375  13.4830899  32.2242243
   6.0726377  13.6718370  30.7393311   8.3055658  13.6196143  35.2607847
   7.9413865  13.0926764  35.9720769   9.1622774  13.2294612  35.0874333
  10.7036478  17.1103022  41.9235026  10.4037201  18.0128060  41.8150834
  10.3587538  16.8435205  42.7756179  14.1033622   9.6285562  39.6032464
  13.1950499   9.5600970  39.3091225  14.0521218  10.1057507  40.4314289
   7.9250366  11.1043700  31.2415863   7.8049991  11.5500751  32.0801343
   7.2302954  11.4529018  30.6829401   5.6857258  23.8747342  34.8905994
   5.6081288  24.8255167  34.9694475   5.0818902  23.5293214  35.5480920
   8.1774488  11.0475207  47.5467361   7.4007822  11.6069127  47.5370226
   8.8165051  11.5331990  48.0682231  15.9695268   7.8302000  41.3810338
  15.3269649   8.1234533  40.7350132  15.4650197   7.7154921  42.1863534
  13.6235432  11.5765173  32.0696197  14.5353288  11.8092560  31.8943894
  13.1145079  12.1602218  31.5071275   6.4320860  13.8560661  47.1085328
   7.1735544  14.3945705  46.8320152   5.7257845  14.4826949  47.2656880
  11.9076200  15.9989801  45.7057489  12.3159556  15.5572212  44.9612122
  11.1853461  15.4242429  45.9591682   8.2607270  10.9362408  43.0791046
   9.1068465  11.3601822  43.2225695   8.2005907  10.2796032  43.7729610
  12.2305014  16.5590992  39.4609778  11.6013877  16.7236706  38.7585846
  11.8430676  16.9732601  40.2320742  16.1094246  17.4945430  36.8154142
  15.4245284  17.8744331  36.2651175  16.1938095  18.1040756  37.5486090
  11.4106715   8.5966776  44.7372220  11.1667647   9.3508837  44.2006496
  11.6866646   8.9752124  45.5719467  13.3645178  15.1405389  43.4149486
  13.5762073  15.7837149  42.7383867  13.3174926  14.3067705  42.9471416
   7.7832976  16.2965400  36.7259863   8.2471322  16.5753103  35.9364486
   7.5189774  15.3948844  36.5432954   4.6757057  15.8436881  39.6639627
   5.2458414  16.2724150  39.0257111   5.2665169  15.5619466  40.3623812
   6.7201862  12.4188552  33.5349429   7.4225906  12.8709596  34.0023355
   6.3882491  11.7772371  34.1629322  14.4791006  18.0177344  41.5871843
  15.3008449  17.6157531  41.3054525  14.4753409  17.9145578  42.5387959
   8.2447609  17.5661387  43.7432553   8.3092042  18.0281795  44.5790725
   7.5358533  16.9358752  43.8714863  22.5696999  14.3616093  37.9356814
  21.8160707  13.7923491  37.7800819  22.7044540  14.3278757  38.8827449
   7.9595627  19.2329495  33.6111534   7.8241302  20.0781031  34.0396382
   8.5005439  19.4348773  32.8477468   1.4125024  16.7504933  34.1839459
   1.9249545  17.5448183  34.3345024   2.0647737  16.0531223  34.1173060
   3.2219909  19.8670689  36.2662212   3.3986537  20.7888654  36.0783196
   4.0176742  19.5529108  36.6956592   9.5864103  19.8553061  47.7411876
   9.1427957  19.0689440  47.4232780  10.2481317  20.0432212  47.0755767
   4.3451224  21.3848863  42.2672554   4.8958650  21.2565926  41.4949548
   3.5062700  21.6843752  41.9167447  11.6845341  20.1355861  45.7693277
  11.6663817  20.9564742  45.2773546  12.6065261  20.0109937  45.9943418
   8.1418395  17.6499991  46.6116785   8.6746732  16.8888279  46.3816093
   7.6132477  17.3573643  47.3540940  11.2738373  12.7468668  30.6482862
  10.7584997  13.5173273  30.8871250  11.0015682  12.0733804  31.2715924
  16.2472647  15.5001023  32.5836036  15.4702090  15.1612182  32.1391198
  16.9264128  15.5053646  31.9091001  11.0624676  10.6195760  32.4742644
  10.7574812  10.9341909  33.3252787  12.0155118  10.6977180  32.5169977
   9.5071108  16.7785983  34.1235598   8.9792470  16.0438743  33.8108835
   9.0058611  17.5560660  33.8775566  14.4863954  14.9735004  39.2402644
  13.8287629  15.6634265  39.3282772  15.2904353  15.3631436  39.5836630
  13.2969413  13.3279376  37.2906586  13.8101295  13.9609368  37.7928295
  13.9470637  12.7280572  36.9249946  10.5591787  23.3063701  30.0467257
   9.8853486  23.6095397  30.6552215  10.9457609  24.1092781  29.6972714
   9.7750244  10.8028832  39.5364926   8.8572805  11.0243779  39.3786614
  10.1910387  10.8775142  38.6776633  10.5585292  12.2020248  34.6667606
  11.3057111  12.7141645  34.3574728  10.8276881  11.8804300  35.5272000
   8.8311942  14.6978788  31.6494561   7.9223161  14.4137821  31.7467030
   8.8607026  15.1177867  30.7897867  14.0631209  18.3085378  35.4185728
  13.6093536  17.4676288  35.4750919  13.4325176  18.9446776  35.7560508
  13.0064129   9.2377364  36.6486396  12.2686886   8.7254750  36.9796638
  13.2590902   8.7977746  35.8369673  12.5064148  20.1461875  36.3535546
  12.7987123  20.7066932  35.6347912  13.0162769  20.4390436  37.1088705
   7.3796836  12.3107409  37.7504356   7.4345446  11.3581245  37.6746833
   6.5688038  12.4666848  38.2345654   8.5288030  16.2387532  28.9882639
   8.0907459  15.5223391  28.5288277   9.2698470  16.4663647  28.4267731
   7.4697774  20.9242226  37.4429000   7.4273952  21.1503072  36.5137532
   8.3860472  20.6905600  37.5914801  10.9163407  11.3926293  44.3409629
  11.2712795  11.6197766  45.2004095  11.5635539  11.7244670  43.7186884
  16.6461144  14.5144729  35.0458958  16.5079043  14.7046325  34.1180147
  16.2897363  15.2764112  35.5027009  16.6730524  16.5821256  40.0570229
  17.1067031  16.4896545  40.9053283  17.3862105  16.5578757  39.4190245
   5.5863574  17.8005255  37.2390962   6.3804173  17.3055575  37.0373537
   4.8755267  17.2723118  36.8758668  10.4058419  20.1823350  41.5903330
  10.4595441  20.7514287  42.3581046   9.5373200  20.3525235  41.2257367
  17.5346074  16.6244957  42.5903115  17.7281964  17.5290767  42.8362390
  17.4346692  16.1652376  43.4241700  12.5961182  16.7751700  48.1643995
  12.4446689  16.5462251  47.2474079  12.5865862  17.7322301  48.1775340
   9.3646519  14.3483612  43.1490262  10.2938579  14.4994772  42.9759229
   8.9437549  14.4367633  42.2938908   8.1634850  18.3734277  40.9188799
   8.0245936  18.0053061  41.7914737   7.3749447  18.8881916  40.7472757
   8.7583002  23.4743373  32.2614336   8.9334758  23.0031416  33.0759959
   8.0715790  24.1009139  32.4895597   9.7140066  17.7515879  38.3077637
   9.3789898  17.7116649  39.2035287   9.2144011  17.0860595  37.8348047
  12.6499257  15.0971914  28.5814697  12.0328428  14.3718742  28.4847749
  12.1815746  15.8581274  28.2381771   6.3166610  12.8703469  43.3213898
   7.0266229  12.2296661  43.2800516   6.2735918  13.1216364  44.2440079
  14.3053389  19.8070822  46.2420477  14.2465935  19.1230042  45.5751060
  14.7072907  20.5489812  45.7901103   3.3244088  26.6232736  39.0354196
   3.5640686  27.2551260  39.7133215   2.4813284  26.2720776  39.3219555
  14.3070796  17.7710406  44.4734457  13.4197575  17.4336328  44.5960856
  14.8769347  17.0393437  44.7103222   7.8371950  22.4311858  41.4395700
   7.7642121  23.2366830  41.9515005   7.3949343  22.6303824  40.6143721
   7.6261729  21.6683628  34.9498522   6.8429251  22.2105309  35.0436746
   8.3254474  22.1857608  35.3492763  18.7888137  13.1818623  39.2351018
  18.7778013  14.0643339  38.8644952  17.9205516  12.8290174  39.0405556
  10.2970633  22.3298692  43.5953859  11.0098605  22.9646157  43.5229760
   9.8060662  22.4262558  42.7793861  12.0188160  16.2349945  35.1671150
  11.0844439  16.3551408  34.9975855  12.1964828  15.3322412  34.9031160
  15.4060711  12.0767264  35.7021185  15.8721163  12.9095256  35.6281487
  15.8568212  11.6112246  36.4066443   5.3482547  20.0793136  44.4159430
   6.0492006  20.7129619  44.5688824   4.8777662  20.4207867  43.6555069
  13.4736942  18.4211086  32.7007337  13.7496786  18.3067680  33.6101211
  12.6041441  18.0228571  32.6619510  13.1483833  12.6337743  42.2411980
  12.4955283  12.8813651  41.5864433  13.5264212  11.8201882  41.9074457
  10.1091006  22.6697436  36.3440150  10.2913401  21.8519092  36.8067903
  10.9323992  22.8865129  35.9065040  10.4433172  21.5965622  33.6055199
  10.9720938  21.0858076  32.9925361  10.7061391  21.2808152  34.4700732
   9.1971406  13.3757554  48.7278017   8.5212043  13.2751684  49.3980392
  10.0199039  13.2196768  49.1914014   0.9450265  19.6129491  41.3490532
   1.5303701  18.8673179  41.4818436   0.7475103  19.9233448  42.2327196
   3.7988920  22.6480738  36.3652975   3.1299295  23.1326866  35.8817015
   3.6601790  22.8949959  37.2796353   7.9394188  24.6824482  42.9635633
   8.4912496  24.8456103  43.7284718   8.2800382  25.2728920  42.2915658
  12.7905063  19.5085739  48.8184287  13.3344967  20.1215698  48.3239242
  12.2091908  20.0665318  49.3351300  11.0762576  22.6306457  39.9499315
  10.9513715  21.8296197  39.4410261  11.7341667  23.1252651  39.4613285
  13.1397484  20.4315477  41.5778865  12.1927820  20.3120829  41.5057192
  13.4880257  19.5437975  41.6605127  10.1443917  20.2268194  37.7783217
   9.9968880  19.2984901  37.9590787  10.9697411  20.2488284  37.2940293
  13.7478039  21.0496752  38.8648090  14.6724587  20.8439614  38.7272541
  13.5793343  20.8013154  39.7737432  13.5373355  21.5682420  34.2210182
  13.7110233  21.0028842  33.4684034  14.0302247  22.3683315  34.0389672
  19.3912747  14.3318843  35.8400481  19.8343893  13.5826168  35.4419605
  18.5139257  14.3228979  35.4574213  14.5248528  20.8849184  31.3207080
  15.2199433  21.5055877  31.5394395  14.8671678  20.0344535  31.5959458
  16.4239951  18.3348890  32.8494411  16.9491275  18.6736163  32.1243731
  16.3362304  17.3995905  32.6657545   8.0860000  22.2482963  44.9784287
   8.3947126  22.0032110  45.8506987   8.8835482  22.4529602  44.4903158
   8.1080612  24.4020873  37.2089664   7.6685602  23.9097252  37.9022521
   8.8588729  23.8593841  36.9681739   5.5554484  19.9458882  39.2811966
   4.9334493  19.2829587  38.9814193   6.2259351  19.9720014  38.5985613
  16.1133857  18.9681793  48.1545609  15.3229401  18.9505932  47.6150108
  15.8767212  19.5070087  48.9094645  16.2331732  15.8174260  45.4678337
  16.2829737  15.6524267  46.4093860  16.1245656  14.9501519  45.0776218
   5.1167991  18.4962805  32.7570426   5.2656111  19.1798270  32.1037099
   5.9234434  18.4767896  33.2719882  13.5235495  11.8005188  46.7837644
  14.4245357  11.6611653  46.4921642  13.5983469  11.9659643  47.7235821
  17.7349929  18.2371201  45.7120359  17.4434737  18.6001182  46.5483820
  17.1222060  17.5238210  45.5333691  18.9345611  15.8024081  38.2322929
  19.7692503  16.2413885  38.3960489  19.0704740  15.3262734  37.4131175
  15.9837117  13.3603816  44.1800417  16.4591239  13.5531462  43.3719268
  15.0602683  13.4163002  43.9343800   8.6163396  20.9910936  30.2282174
   8.0437363  21.6101123  29.7752645   9.1896190  21.5410298  30.7622095
  14.6838786  10.2369576  42.4128722  15.6356209  10.3367674  42.4340946
  14.5142237   9.4447845  42.9226807  12.7053166   7.3225159  42.5988123
  12.1103098   7.6030172  41.9034612  12.4202862   7.8119060  43.3704864
  11.8360656  21.2748086  31.3590756  12.7691329  21.2093648  31.5623631
  11.7483869  22.1104353  30.9005288  14.4648673  20.5913956  28.3194703
  14.3862304  20.2573820  29.2130461  15.2858340  21.0835724  28.3186176
  17.1626864  13.4575696  41.5271022  17.1303184  12.5191696  41.7130706
  17.7727488  13.5359732  40.7936847  17.3121353  10.2486739  41.5729305
  16.7960401   9.4645196  41.3859234  18.1961301   9.9205456  41.7375825
  22.9803414  14.5191703  40.6677059  23.7106802  14.2576991  41.2284762
  22.3710359  13.7820424  40.7079127  21.0618711  12.6599565  41.2651510
  20.3351875  12.5255530  40.6568002  20.6465998  12.9676394  42.0708228
   8.8848887  16.3789495  49.0298883   9.8051897  16.5568094  49.2238930
   8.8498470  15.4345540  48.8778582   6.6170095  13.2920874  49.8789475
   6.1337177  14.0921234  50.0853364   6.7031034  13.3028819  48.9256919
   2.5443433  17.1825409  41.9157909   3.4986686  17.1509351  41.8487840
   2.3455956  16.7216033  42.7308134   3.1342815  15.7526525  44.4828706
   3.9535704  16.2470603  44.5063543   3.4079623  14.8358493  44.4546274
  12.8909411   8.1437277  33.8456662  12.0035266   8.4286928  33.6276856
  13.3063400   7.9831041  32.9983939  16.2423947   8.1683798  37.5611001
  17.0184337   8.6580251  37.8335618  15.5172081   8.5941852  38.0182870
  18.6796506   8.8811417  38.6184942  19.2740997   8.6407153  37.9078250
  18.7523090   8.1618548  39.2458478  12.0352625  17.9081952  27.9404682
  12.7388475  18.1131954  28.5562337  11.3115273  18.4758714  28.2053765
  12.8650435  13.6591813  34.0606952  12.8085636  14.1160364  33.2214584
  13.4178777  12.8982498  33.8829795  16.6755241   9.4481545  34.8857071
  16.4192175   9.0478181  35.7165279  16.0508109  10.1625339  34.7607211
  20.9867579  12.1877618  37.3928363  20.4267137  12.2570807  38.1659925
  20.3811082  12.0118603  36.6727859   4.0562787  23.6214345  39.1446549
   3.9395172  24.5659778  39.0425239   3.2355234  23.3187907  39.5332348
  13.9439322  18.3464481  29.9903142  14.7784926  17.9145679  29.8080617
  13.7823665  18.1746495  30.9180036  13.5985214  14.8496594  31.3559481
  13.5434018  14.6840866  30.4147925  12.9731269  15.5572627  31.5121671
  10.9131121  17.1545506  50.6813044  11.7822281  17.3286158  50.3199679
  10.4337873  17.9739923  50.5588773   5.0817302  24.2742607  42.3602477
   5.9844548  24.3066217  42.6768972   4.8554672  23.3443058  42.3748813
   6.8370904  23.0273594  39.0212556   5.8866535  23.0275455  38.9076928
   7.1403390  22.2806328  38.5048591  22.5723597  28.8634132  40.0858318
  23.2102007  28.7440879  39.3821659  22.4544440  29.8114976  40.1446271
  19.3813303  28.8161560  40.0219843  19.0431815  28.7002625  39.1340378
  20.2503072  28.4152725  40.0020849  15.2400119  30.6697037  36.0116734
  14.6764984  30.5786974  35.2433022  15.1252514  29.8496941  36.4919227
  19.8633086  29.9696412  45.9806049  19.8521727  29.5749210  45.1086552
  20.0253726  29.2362485  46.5739820  12.7864551  32.1648228  38.8500955
  13.5785843  31.8239053  38.4347254  13.0261201  32.2743203  39.7703108
  20.8199678  34.3368004  31.3231199  20.1687658  34.9222085  30.9365213
  21.6144041  34.8674199  31.3826236  14.7455305  31.4257141  31.7218333
  15.5186181  30.8786129  31.5831209  15.0980704  32.2901391  31.9332795
  16.5840348  32.7533524  44.9285233  16.2930214  33.6579155  44.8131899
  17.2197332  32.7950051  45.6429302  17.5096554  30.1310372  41.5186592
  18.1060127  29.9066395  40.8043555  17.5671526  29.3895118  42.1212040
  17.0821583  27.5849808  29.3536783  17.3347103  27.0631329  28.5920246
  16.1446142  27.4215953  29.4563467  22.1264866  26.5885586  37.1611527
  22.9127955  26.1705009  36.8101944  22.3903570  27.4931678  37.3293175
  22.2974943  32.0258436  31.8600183  21.6620776  32.0993063  32.5721088
  21.9672349  32.6152035  31.1819263  27.5273293  26.5260819  38.0644505
  28.2598465  25.9560036  38.2982335  26.7712648  26.1382420  38.5051011
  16.8017872  29.4877914  31.5561158  16.6854130  28.8122817  32.2242243
  16.9120131  29.0010287  30.7393311  19.1449412  28.9488061  35.2607847
  18.7807620  28.4218682  35.9720769  20.0016528  28.5586530  35.0874333
  25.0498713  20.2382393  42.5239114  24.7182038  21.1077804  42.3000329
  24.4544326  19.9218677  43.2033144  18.7854899  23.9777960  30.2569196
  18.9529302  24.8458197  30.6239667  18.5952069  24.1405242  29.3330485
  21.5430233  32.4394939  41.9235026  21.2430956  33.3419978  41.8150834
  21.1981292  32.1727122  42.7756179  14.9942714  28.8908736  37.9571731
  14.0693211  28.7584950  38.1649423  15.2427127  29.6702955  38.4541673
  24.9427376  24.9577479  39.6032464  24.0344254  24.8892888  39.3091225
  24.8914972  25.4349424  40.4314289  18.7644120  26.4335618  31.2415863
  18.6443746  26.8792669  32.0801343  18.0696709  26.7820936  30.6829401
  12.3551525  28.5342010  38.7915520  12.4843906  28.7876489  39.7054932
  11.6748976  29.1269718  38.4720175  16.5251012  39.2039260  34.8905994
  16.4475042  40.1547085  34.9694475  15.9212656  38.8585132  35.5480920
  19.0168242  26.3767125  47.5467361  18.2401576  26.9361045  47.5370226
  19.6558805  26.8623908  48.0682231  26.8089023  23.1593918  41.3810338
  26.1663403  23.4526451  40.7350132  26.3043951  23.0446838  42.1863534
  24.4629186  26.9057091  32.0696197  25.3747043  27.1384478  31.8943894
  23.9538834  27.4894135  31.5071275  17.2714614  29.1852578  47.1085328
  18.0129299  29.7237622  46.8320152  16.5651600  29.8118867  47.2656880
  22.7469954  31.3281719  45.7057489  23.1553310  30.8864129  44.9612122
  22.0247216  30.7534346  45.9591682  19.1001024  26.2654326  43.0791046
  19.9462219  26.6893739  43.2225695  19.0399662  25.6087950  43.7729610
  23.0698769  31.8882909  39.4609778  22.4407631  32.0528624  38.7585846
  22.6824431  32.3024519  40.2320742  26.9488001  32.8237347  36.8154142
  26.2639039  33.2036249  36.2651175  27.0331850  33.4332674  37.5486090
  22.2500470  23.9258694  44.7372220  22.0061401  24.6800755  44.2006496
  22.5260400  24.3044042  45.5719467  24.2038932  30.4697306  43.4149486
  24.4155828  31.1129066  42.7383867  24.1568681  29.6359623  42.9471416
  21.8065161  23.0815127  40.3186058  20.9449640  23.3796381  40.6102795
  21.8327596  23.2985526  39.3867090  18.6226731  31.6257318  36.7259863
  19.0865076  31.9045021  35.9364486  18.3583529  30.7240762  36.5432954
  15.5150812  31.1728799  39.6639627  16.0852169  31.6016067  39.0257111
  16.1058924  30.8911384  40.3623812  17.5595617  27.7480470  33.5349429
  18.2619660  28.2001514  34.0023355  17.2276245  27.1064289  34.1629322
  16.0075978  26.3392227  47.9100638  15.3774639  27.0208507  48.1436035
  15.9012066  26.2275308  46.9653776  11.3020951  26.0064023  38.8366562
  10.5120005  26.2621551  38.3606673  11.7932198  26.8212360  38.9418603
  25.3184760  33.3469262  41.5871843  26.1402204  32.9449449  41.3054525
  25.3147163  33.2437496  42.5387959  13.2535696  26.3708602  35.7950039
  12.4566859  26.4827296  36.3133535  13.0261288  26.7095254  34.9290929
  19.0841364  32.8953305  43.7432553  19.1485796  33.3573712  44.5790725
  18.3752288  32.2650670  43.8714863   9.5858654  26.2594513  41.2681553
   9.8366692  27.1441523  41.5339129  10.1218202  26.0799115  40.4956645
  33.4090753  29.6908010  37.9356814  32.6554462  29.1215408  37.7800819
  33.5438294  29.6570675  38.8827449  18.7989381  34.5621413  33.6111534
  18.6635056  35.4072948  34.0396382  19.3399194  34.7640690  32.8477468
  15.2856721  20.6412992  50.2725889  14.8923667  20.0879191  50.9473533
  16.1022861  20.9523571  50.6632407  12.2518779  32.0796851  34.1839459
  12.7643299  32.8740101  34.3345024  12.9041492  31.3823141  34.1173060
  14.0613663  35.1962607  36.2662212  14.2380292  36.1180572  36.0783196
  14.8570497  34.8821026  36.6956592  18.2024682  22.0570872  47.8646146
  18.9434395  22.6578025  47.7850608  18.4342605  21.3148509  47.3064188
  13.3466020  27.2427239  46.1424375  13.2319535  26.3412496  46.4431474
  12.4910538  27.4890936  45.7909192  20.4257858  35.1844979  47.7411876
  19.9821712  34.3981358  47.4232780  21.0875071  35.3724130  47.0755767
  15.1844979  36.7140781  42.2672554  15.7352404  36.5857844  41.4949548
  14.3456455  37.0135670  41.9167447  22.5239096  35.4647779  45.7693277
  22.5057571  36.2856660  45.2773546  23.4459016  35.3401854  45.9943418
  18.9812150  32.9791908  46.6116785  19.5140487  32.2180197  46.3816093
  18.4526231  32.6865560  47.3540940  22.1481845  18.0851974  42.1410427
  21.8046114  18.9753616  42.0649538  22.5160808  17.8953632  41.2780012
  10.2167696  30.4085505  34.9599029  11.0542918  30.8182513  34.7432737
  10.3945963  29.4684947  34.9299223  22.1132128  28.0760586  30.6482862
  21.5978751  28.8465190  30.8871250  21.8409436  27.4025722  31.2715924
  19.6979239  22.9210286  35.7068101  18.8420835  22.5317137  35.5273739
  20.1106190  23.0002247  34.8467886  21.2278385  20.4556630  40.1059660
  20.7243181  20.4186765  39.2927466  21.5208992  21.3649372  40.1656317
  17.4721271  20.5395359  39.1125842  18.3374268  20.3438168  38.7531732
  17.5398780  20.3105711  40.0395199  27.0866402  30.8292940  32.5836036
  26.3095845  30.4904100  32.1391198  27.7657883  30.8345563  31.9091001
  21.9018431  25.9487678  32.4742644  21.5968566  26.2633827  33.3252787
  22.8548873  26.0269098  32.5169977  20.3464863  32.1077901  34.1235598
  19.8186224  31.3730661  33.8108835  19.8452365  32.8852577  33.8775566
  25.3257709  30.3026921  39.2402644  24.6681383  30.9926183  39.3282772
  26.1298108  30.6923353  39.5836630  15.0783590  22.7697567  36.4842209
  15.6527342  22.5472749  35.7515402  15.6654573  22.8386262  37.2370810
  24.1363167  28.6571294  37.2906586  24.6495049  29.2901286  37.7928295
  24.7864391  28.0572490  36.9249946  15.4053177  24.8002028  30.5038094
  14.5690490  25.1376715  30.8247369  15.2657947  24.6651008  29.5665231
  17.3806258  19.6438816  35.2117278  16.7270670  19.3287833  34.5873893
  17.3386732  19.0214557  35.9377101  18.4917463  29.9258111  27.1270571
  17.5844525  29.6947365  27.3261720  18.9888495  29.1295730  27.3144552
  21.3985542  38.6355618  30.0467257  20.7247240  38.9387315  30.6552215
  21.7851364  39.4384699  29.6972714  20.6143998  26.1320750  39.5364926
  19.6966560  26.3535697  39.3786614  21.0304142  26.2067060  38.6776633
  21.3979046  27.5312165  34.6667606  22.1450865  28.0433563  34.3574728
  21.6670636  27.2096218  35.5272000  19.6705696  30.0270706  31.6494561
  18.7616916  29.7429739  31.7467030  19.7000780  30.4469785  30.7897867
  24.9024964  33.6377296  35.4185728  24.4487291  32.7968205  35.4750919
  24.2718930  34.2738694  35.7560508  23.8457883  24.5669282  36.6486396
  23.1080640  24.0546668  36.9796638  24.0984657  24.1269663  35.8369673
  23.3457903  35.4753792  36.3535546  23.6380877  36.0358849  35.6347912
  23.8556523  35.7682353  37.1088705  23.9469511  17.3445534  37.2428165
  24.2528387  16.4842897  36.9554080  24.6722115  17.9363154  37.0427159
  10.2393867  27.7476220  35.6309763  10.0418266  27.1545581  34.9060829
   9.6840531  27.4428430  36.3485702  18.2190590  27.6399327  37.7504356
  18.2739200  26.6873163  37.6746833  17.4081792  27.7958766  38.2345654
  19.3681784  31.5679450  28.9882639  18.9301214  30.8515309  28.5288277
  20.1092225  31.7955565  28.4267731  16.1582950  26.2576386  35.5094735
  15.3450816  26.5570557  35.9159927  16.6541944  25.8632075  36.2269217
  18.3091528  36.2534143  37.4429000  18.2667707  36.4794990  36.5137532
  19.2254227  36.0197518  37.5914801  21.7557162  26.7218211  44.3409629
  22.1106550  26.9489684  45.2004095  22.4029293  27.0536588  43.7186884
  27.4854899  29.8436647  35.0458958  27.3472797  30.0338243  34.1180147
  27.1291118  30.6056030  35.5027009  15.6497025  23.8294742  41.1255970
  16.2896404  23.6883501  40.4278933  14.8174556  23.5429255  40.7494572
  27.5124278  31.9113174  40.0570229  27.9460785  31.8188463  40.9053283
  28.2255859  31.8870674  39.4190245  16.4257329  33.1297172  37.2390962
  17.2197927  32.6347493  37.0373537  15.7149021  32.6015036  36.8758668
  21.2452173  35.5115268  41.5903330  21.2989196  36.0806204  42.3581046
  20.3766955  35.6817153  41.2257367  12.7340092  27.2740254  33.3150715
  11.8037680  27.2124710  33.5320677  12.8297564  26.7516207  32.5187356
  12.6525641  23.7995067  35.9028957  12.9132459  24.7140400  35.7938117
  13.4742814  23.3319510  36.0525569  14.1250567  25.2132824  43.0727781
  14.7973620  25.0050186  42.4240430  13.2980353  25.0154910  42.6333013
  28.3739828  31.9536874  42.5903115  28.5675718  32.8582685  42.8362390
  28.2740446  31.4944294  43.4241700  20.0276139  21.8394765  45.0893442
  19.3804054  22.5384715  44.9957918  20.7977154  22.2730909  45.4569690
  23.4354937  32.1043617  48.1643995  23.2840443  31.8754169  47.2474079
  23.4259616  33.0614219  48.1775340  20.2040273  29.6775530  43.1490262
  21.1332333  29.8286690  42.9759229  19.7831303  29.7659551  42.2938908
  19.0028605  33.7026194  40.9188799  18.8639691  33.3344979  41.7914737
  18.2143201  34.2173834  40.7472757  19.5976757  38.8035291  32.2614336
  19.7728513  38.3323334  33.0759959  18.9109545  39.4301057  32.4895597
  20.5533820  33.0807797  38.3077637  20.2183653  33.0408567  39.2035287
  20.0537766  32.4152513  37.8348047  14.5278064  28.4875427  43.8330218
  14.3897862  27.7555666  44.4341757  15.4382987  28.3984327  43.5514406
  23.4893012  30.4263831  28.5814697  22.8722182  29.7010660  28.4847749
  23.0209500  31.1873192  28.2381771  17.1560365  28.1995386  43.3213898
  17.8659983  27.5588579  43.2800516  17.1129673  28.4508281  44.2440079
  25.1447143  35.1362740  46.2420477  25.0859689  34.4521960  45.5751060
  25.5466662  35.8781730  45.7901103  15.8689299  25.1860604  45.1409537
  15.3326656  24.7351343  45.7931134  15.2806007  25.3206513  44.3980002
  14.1637842  41.9524654  39.0354196  14.4034440  42.5843178  39.7133215
  13.3207039  41.6012694  39.3219555  15.2791558  24.6449256  27.7036001
  14.4021024  24.5238057  27.3398248  15.7549311  23.8535334  27.4514890
  25.1464551  33.1002324  44.4734457  24.2591329  32.7628245  44.5960856
  25.7163102  32.3685355  44.7103222   6.7993698  29.4326415  37.7977508
   7.4864738  29.1188145  37.2098524   6.6441826  30.3367780  37.5244760
  11.6028420  24.3216612  42.2262532  11.5186609  23.7142282  41.4912942
  10.7811126  24.8125630  42.2272028  18.6765704  37.7603776  41.4395700
  18.6035875  38.5658748  41.9515005  18.2343097  37.9595742  40.6143721
  18.4655484  36.9975546  34.9498522  17.6823006  37.5397226  35.0436746
  19.1648229  37.5149526  35.3492763  21.7752134  22.8070176  37.5932727
  22.2720833  22.0540138  37.2733797  21.0039115  22.8434492  37.0275936
  29.6281891  28.5110541  39.2351018  29.6171767  29.3935256  38.8644952
  28.7599271  28.1582092  39.0405556  21.1364388  37.6590610  43.5953859
  21.8492360  38.2938075  43.5229760  20.6454416  37.7554476  42.7793861
  22.8581914  31.5641863  35.1671150  21.9238193  31.6843325  34.9975855
  23.0358583  30.6614330  34.9031160  18.3587102  24.9487559  37.3204412
  17.9884890  24.3958599  38.0085317  18.8546195  24.3445692  36.7679412
  26.2454466  27.4059182  35.7021185  26.7114918  28.2387174  35.6281487
  26.6961966  26.9404164  36.4066443  16.1876301  35.4085054  44.4159430
  16.8885761  36.0421537  44.5688824  15.7171416  35.7499785  43.6555069
  24.3130697  33.7503003  32.7007337  24.5890541  33.6359598  33.6101211
  23.4435196  33.3520488  32.6619510  24.2171129  19.7739769  39.7412086
  23.3034208  20.0043996  39.9094293  24.6464230  19.8578213  40.5926118
  23.9877587  27.9629661  42.2411980  23.3349037  28.2105568  41.5864433
  24.3657967  27.1493799  41.9074457  20.9484761  37.9989354  36.3440150
  21.1307155  37.1811010  36.8067903  21.7717747  38.2157046  35.9065040
  21.2826926  36.9257539  33.6055199  21.8114693  36.4149994  32.9925361
  21.5455146  36.6100070  34.4700732  20.0365160  28.7049472  48.7278017
  19.3605797  28.6043601  49.3980392  20.8592794  28.5488686  49.1914014
  11.7844019  34.9421409  41.3490532  12.3697456  34.1965096  41.4818436
  11.5868858  35.2525365  42.2327196  14.6382674  37.9772656  36.3652975
  13.9693050  38.4618784  35.8817015  14.4995544  38.2241876  37.2796353
   6.3761674  27.5127009  40.0694975   6.4145773  26.9790599  40.8632093
   5.8701967  26.9862214  39.4505953  18.7787943  40.0116400  42.9635633
  19.3306251  40.1748021  43.7284718  19.1194136  40.6020837  42.2915658
  13.7552436  22.3591549  43.5657518  13.8193763  23.2206380  43.1534915
  13.6919556  21.7465551  42.8329876  13.2304709  24.4314682  47.2130552
  13.8576747  24.0491759  47.8268076  12.3732628  24.2128884  47.5786244
  23.6298817  34.8377657  48.8184287  24.1738721  35.4507615  48.3239242
  23.0485662  35.3957235  49.3351300  10.0070251  26.2391111  33.1448907
  10.3023693  25.3301789  33.0915960   9.1058287  26.2178850  32.8229909
  21.9156330  37.9598375  39.9499315  21.7907470  37.1588115  39.4410261
  22.5735421  38.4544568  39.4613285  13.5364498  24.3147108  39.1276455
  12.8151084  24.9283075  38.9883929  14.3257754  24.8504872  39.0493101
  23.9791239  35.7607395  41.5778865  23.0321574  35.6412746  41.5057192
  24.3274012  34.8729893  41.6605127  16.3390812  21.6501534  45.4017107
  16.8625214  21.8963831  46.1643416  16.1203145  22.4821569  44.9820244
  11.7358093  23.9205209  33.2688232  11.4070799  23.0402588  33.0863338
  12.0897464  23.8652877  34.1564621  20.9837672  35.5560111  37.7783217
  20.8362634  34.6276819  37.9590787  21.8091165  35.5780202  37.2940293
  14.8499916  24.2078178  33.6363710  15.1895989  24.7364100  32.9142318
  15.2972037  24.5458585  34.4122276  24.5871794  36.3788670  38.8648090
  25.5118341  36.1731531  38.7272541  24.4187097  36.1305071  39.7737432
  17.5443357  22.5915229  43.0866778  17.2040177  21.7923042  43.4887458
  16.8382363  22.8916940  42.5143611  18.1959829  19.6764542  41.5394101
  19.0185898  19.2025020  41.4172991  18.4397892  20.4555025  42.0392787
  16.8368063  22.7052800  31.8357002  17.5576426  23.0834053  31.3320719
  16.2133367  23.4241677  31.9391980  20.9799186  23.4097949  32.7715335
  21.1962801  24.2922587  32.4704163  20.4993253  23.0184162  32.0420977
  15.7198408  26.3683662  39.3486079  15.5742988  26.6823965  40.2410361
  15.2423611  26.9868563  38.7956978  17.5794790  23.3586210  39.3966969
  17.5656359  22.4627303  39.0599267  18.2967219  23.3656874  40.0305255
  19.4320921  23.7923550  41.4420096  19.1738699  24.7140621  41.4404427
  18.9005962  23.3953985  42.1320560  24.3767110  36.8974338  34.2210182
  24.5503987  36.3320760  33.4684034  24.8696001  37.6975232  34.0389672
  10.1944070  28.9089007  42.2873740   9.6497538  29.6848815  42.4194015
  11.0723420  29.2559811  42.1292862  16.9831686  22.2400590  34.6654539
  17.1047598  21.3117237  34.8645426  16.6933729  22.2539276  33.7532854
  19.8522877  19.9255501  37.8021259  19.8744574  19.9894834  36.8473238
  20.2690936  19.0860010  37.9961765  30.2306501  29.6610760  35.8400481
  30.6737647  28.9118086  35.4419605  29.3533011  29.6520897  35.4574213
  25.3642282  36.2141102  31.3207080  26.0593187  36.8347795  31.5394395
  25.7065433  35.3636453  31.5959458  10.9810092  28.0358903  45.1803897
  10.2391828  28.1841538  45.7668528  10.6602836  28.2967168  44.3170647
  27.2633706  33.6640807  32.8494411  27.7885030  34.0028080  32.1243731
  27.1756058  32.7287823  32.6657545  18.9253754  37.5774881  44.9784287
  19.2340881  37.3324028  45.8506987  19.7229236  37.7821520  44.4903158
  18.9474366  39.7312791  37.2089664  18.5079357  39.2389169  37.9022521
  19.6982483  39.1885758  36.9681739  11.4266705  35.9224332  37.2114292
  12.2524725  35.6228103  36.8312935  11.0760757  35.1531954  37.6604081
  16.3948238  35.2750800  39.2811966  15.7728248  34.6121505  38.9814193
  17.0653105  35.3011932  38.5985613   9.6275310  33.8410658  38.1703226
   8.7907219  33.4132832  37.9887227   9.5998956  34.0343101  39.1074017
  16.4672766  23.7532588  48.8744472  16.5160921  24.6294711  48.4922241
  17.0095280  23.2109981  48.3016115  26.9527612  34.2973711  48.1545609
  26.1623155  34.2797850  47.6150108  26.7160966  34.8362005  48.9094645
  27.0725487  31.1466177  45.4678337  27.1223492  30.9816185  46.4093860
  26.9639410  30.2793436  45.0776218  15.9561745  33.8254723  32.7570426
  16.1049866  34.5090188  32.1037099  16.7628189  33.8059813  33.2719882
  24.3629249  27.1297105  46.7837644  25.2639112  26.9903570  46.4921642
  24.4377224  27.2951560  47.7235821  18.6972054  24.5063960  45.6290830
  17.8275364  24.7997526  45.3573419  18.9331535  25.0904405  46.3498094
  28.5743683  33.5663119  45.7120359  28.2828492  33.9293100  46.5483820
  27.9615815  32.8530127  45.5333691  29.7739366  31.1315999  38.2322929
  30.6086257  31.5705803  38.3960489  29.9098495  30.6554652  37.4131175
  26.8230872  28.6895734  44.1800417  27.2984993  28.8823380  43.3719268
  25.8996437  28.7454919  43.9343800  13.7114378  29.8519901  33.7631495
  13.4660420  28.9482231  33.9611705  13.8810293  29.8537051  32.8210973
  21.4011088  20.7243577  43.1456251  21.9193032  21.4604604  42.8202739
  21.0466221  21.0307570  43.9803010  12.9810026  25.5848258  31.2617656
  12.2879271  25.6592613  30.6057692  12.7361778  24.8208602  31.7839173
  21.6523682  17.1443860  38.6657147  21.9325436  16.4767049  39.2917574
  22.4374289  17.3372955  38.1531811  19.4557151  36.3202854  30.2282174
  18.8831118  36.9393041  29.7752645  20.0289945  36.8702215  30.7622095
  25.5232541  25.5661494  42.4128722  26.4749964  25.6659591  42.4340946
  25.3535991  24.7739762  42.9226807  23.5446920  22.6517077  42.5988123
  22.9496852  22.9322090  41.9034612  23.2596617  23.1410978  43.3704864
  22.6754411  36.6040004  31.3590756  23.6085084  36.5385565  31.5623631
  22.5877623  37.4396271  30.9005288  25.3042427  35.9205874  28.3194703
  25.2256059  35.5865738  29.2130461  26.1252094  36.4127642  28.3186176
  28.0020619  28.7867613  41.5271022  27.9696939  27.8483614  41.7130706
  28.6121242  28.8651650  40.7936847  19.8403949  27.6563666  27.5698226
  20.7863054  27.5269874  27.6386644  19.4618194  26.9178328  28.0467654
  28.1515107  25.5778657  41.5729305  27.6354156  24.7937113  41.3859234
  29.0355056  25.2497373  41.7375825  25.8125834  19.3219672  37.5325118
  25.6150655  19.0134761  38.4168450  26.4225539  20.0481311  37.6623048
  33.8197168  29.8483620  40.6677059  34.5500557  29.5868908  41.2284762
  33.2104114  29.1112342  40.7079127  31.9012465  27.9891483  41.2651510
  31.1745629  27.8547448  40.6568002  31.4859752  28.2968311  42.0708228
  19.7242642  31.7081412  49.0298883  20.6445651  31.8860011  49.2238930
  19.6892225  30.7637458  48.8778582  18.0246867  25.5813643  27.5053111
  17.1178322  25.2846755  27.5815825  18.3022848  25.2843461  26.6387397
   8.9424807  26.9020006  37.9552158   8.6227591  26.0485314  37.6626532
   8.3958235  27.1168584  38.7110125  12.7204714  29.6182447  41.6721664
  12.9390724  30.5499555  41.6909698  13.1330488  29.2590422  42.4576468
  19.6408932  20.1250532  33.6597353  18.8309661  19.7797617  34.0352599
  20.3293349  19.8158076  34.2484964  21.5699481  19.2028579  35.2821649
  22.1230519  19.6224033  35.9411672  21.8069567  18.2764327  35.3244605
  17.5932580  25.1915653  51.0624413  17.4929307  26.1410010  50.9936504
  17.3754122  24.8633892  50.1900483  16.7945651  22.4400578  27.6465090
  17.6564815  22.7655476  27.9060908  16.9795995  21.6532074  27.1338156
   8.8113067  30.5222918  39.9245279   8.1176538  30.1076870  39.4115234
   9.5586058  30.5643454  39.3278698  24.9478288  21.3129104  34.7900313
  24.3676957  21.9713908  34.4078366  24.6814220  20.4906449  34.3787731
  23.3981854  20.7134162  36.9921634  23.8981632  20.8250697  36.1835953
  24.0417462  20.4095215  37.6322442  17.4563850  28.6212792  49.8789475
  16.9730932  29.4213152  50.0853364  17.5424789  28.6320737  48.9256919
  10.7249809  30.4541171  37.8011294  10.7020498  30.5528859  36.8493177
  11.0350446  31.3006322  38.1228460  13.3837187  32.5117326  41.9157909
  14.3380441  32.4801269  41.8487840  13.1849711  32.0507950  42.7308134
  13.9736569  31.0818442  44.4828706  14.7929458  31.5762521  44.5063543
  14.2473377  30.1650411  44.4546274  23.7303166  23.4729195  33.8456662
  22.8429021  23.7578845  33.6276856  24.1457155  23.3122958  32.9983939
  27.0817702  23.4975716  37.5611001  27.8578092  23.9872168  37.8335618
  26.3565836  23.9233770  38.0182870  29.5190260  24.2103335  38.6184942
  30.1134751  23.9699071  37.9078250  29.5916844  23.4910466  39.2458478
  11.7387416  38.0536946  38.9328106  11.6041884  37.2937347  38.3666104
  11.3219478  38.7777846  38.4656895  22.8746379  33.2373869  27.9404682
  23.5782229  33.4423872  28.5562337  22.1509028  33.8050631  28.2053765
  23.7044189  28.9883731  34.0606952  23.6479391  29.4452282  33.2214584
  24.2572532  28.2274415  33.8829795  27.5148995  24.7773463  34.8857071
  27.2585930  24.3770098  35.7165279  26.8901863  25.4917257  34.7607211
  31.8261333  27.5169536  37.3928363  31.2660891  27.5862725  38.1659925
  31.2204837  27.3410520  36.6727859  14.8956542  38.9506263  39.1446549
  14.7788926  39.8951695  39.0425239  14.0748988  38.6479825  39.5332348
  24.7833077  33.6756399  29.9903142  25.6178680  33.2437597  29.8080617
  24.6217419  33.5038412  30.9180036  24.4378969  30.1788512  31.3559481
  24.3827772  30.0132783  30.4147925  23.8125024  30.8864545  31.5121671
   9.2271484  25.4156576  45.1820903   9.8730347  24.9055530  45.6708128
   9.0188635  26.1525258  45.7564328  21.7524876  32.4837424  50.6813044
  22.6216036  32.6578076  50.3199679  21.2731627  33.3031841  50.5588773
  17.7475094  19.6796621  30.9344799  17.7353764  20.6238461  31.0913070
  18.6398516  19.4966766  30.6404261  15.9211056  39.6034525  42.3602477
  16.8238303  39.6358135  42.6768972  15.6948426  38.6734976  42.3748813
  17.6764658  38.3565511  39.0212556  16.7260289  38.3567373  38.9076928
  17.9797144  37.6098246  38.5048591  21.5627214  16.2739398  35.1890736
  20.7959609  15.7197884  35.3347419  21.9737919  16.3461266  36.0504888
  13.5668975  22.5624193  49.2795917  14.4300436  22.2060998  49.4899242
  12.9934385  22.2238088  49.9671322  33.4117352  44.1926050  40.0858318
  34.0495762  44.0732797  39.3821659  33.2938195  45.1406894  40.1446271
  30.2207058  44.1453478  40.0219843  29.8825569  44.0294543  39.1340378
  31.0896826  43.7444643  40.0020849  26.0793874  45.9988954  36.0116734
  25.5158739  45.9078891  35.2433022  25.9646269  45.1788859  36.4919227
  30.7026841  45.2988330  45.9806049  30.6915482  44.9041128  45.1086552
  30.8647480  44.5654402  46.5739820  23.6258306  47.4940146  38.8500955
  24.4179597  47.1530971  38.4347254  23.8654956  47.6035121  39.7703108
  31.6593432  49.6659922  31.3231199  31.0081412  50.2514002  30.9365213
  32.4537795  50.1966117  31.3826236  25.5849059  46.7549059  31.7218333
  26.3579935  46.2078046  31.5831209  25.9374458  47.6193308  31.9332795
  27.4234102  48.0825441  44.9285233  27.1323968  48.9871072  44.8131899
  28.0591086  48.1241969  45.6429302  28.3490309  45.4602290  41.5186592
  28.9453881  45.2358312  40.8043555  28.4065280  44.7187035  42.1212040
  27.9215337  42.9141725  29.3536783  28.1740858  42.3923247  28.5920246
  26.9839896  42.7507871  29.4563467  32.9658620  41.9177504  37.1611527
  33.7521709  41.4996927  36.8101944  33.2297324  42.8223596  37.3293175
  33.1368697  47.3550354  31.8600183  32.5014530  47.4284980  32.5721088
  32.8066104  47.9443953  31.1819263  38.3667047  41.8552737  38.0644505
  39.0992219  41.2851954  38.2982335  37.6106403  41.4674337  38.5051011
  27.6411626  44.8169831  31.5561158  27.5247884  44.1414735  32.2242243
  27.7513886  44.3302205  30.7393311  29.9843167  44.2779978  35.2607847
  29.6201374  43.7510599  35.9720769  30.8410283  43.8878447  35.0874333
  35.8892468  35.5674311  42.5239114  35.5575792  36.4369722  42.3000329
  35.2938081  35.2510595  43.2033144  29.6248654  39.3069878  30.2569196
  29.7923056  40.1750114  30.6239667  29.4345823  39.4697160  29.3330485
  32.3823987  47.7686857  41.9235026  32.0824710  48.6711896  41.8150834
  32.0375047  47.5019040  42.7756179  25.8336469  44.2200654  37.9571731
  24.9086965  44.0876868  38.1649423  26.0820882  44.9994873  38.4541673
  35.7821131  40.2869397  39.6032464  34.8738008  40.2184806  39.3091225
  35.7308727  40.7641342  40.4314289  29.6037875  41.7627536  31.2415863
  29.4837500  42.2084586  32.0801343  28.9090463  42.1112853  30.6829401
  23.1945280  43.8633927  38.7915520  23.3237661  44.1168406  39.7054932
  22.5142731  44.4561635  38.4720175  27.3644767  54.5331177  34.8905994
  27.2868797  55.4839002  34.9694475  26.7606410  54.1877050  35.5480920
  29.8561997  41.7059043  47.5467361  29.0795331  42.2652963  47.5370226
  30.4952560  42.1915826  48.0682231  37.6482777  38.4885836  41.3810338
  37.0057158  38.7818369  40.7350132  37.1437706  38.3738756  42.1863534
  35.3022941  42.2349009  32.0696197  36.2140797  42.4676395  31.8943894
  34.7932588  42.8186053  31.5071275  28.1108369  44.5144496  47.1085328
  28.8523053  45.0529540  46.8320152  27.4045354  45.1410785  47.2656880
  33.5863709  46.6573637  45.7057489  33.9947065  46.2156047  44.9612122
  32.8640970  46.0826264  45.9591682  29.9394779  41.5946243  43.0791046
  30.7855974  42.0185657  43.2225695  29.8793416  40.9379868  43.7729610
  33.9092523  47.2174827  39.4609778  33.2801386  47.3820541  38.7585846
  33.5218185  47.6316437  40.2320742  37.7881755  48.1529265  36.8154142
  37.1032793  48.5328166  36.2651175  37.8725604  48.7624592  37.5486090
  33.0894224  39.2550612  44.7372220  32.8455156  40.0092672  44.2006496
  33.3654155  39.6335959  45.5719467  35.0432687  45.7989224  43.4149486
  35.2549582  46.4420984  42.7383867  34.9962435  44.9651541  42.9471416
  32.6458916  38.4107045  40.3186058  31.7843395  38.7088298  40.6102795
  32.6721350  38.6277444  39.3867090  29.4620485  46.9549235  36.7259863
  29.9258831  47.2336938  35.9364486  29.1977283  46.0532680  36.5432954
  26.3544566  46.5020717  39.6639627  26.9245923  46.9307985  39.0257111
  26.9452678  46.2203301  40.3623812  28.3989371  43.0772388  33.5349429
  29.1013415  43.5293431  34.0023355  28.0670000  42.4356206  34.1629322
  26.8469733  41.6684144  47.9100638  26.2168393  42.3500425  48.1436035
  26.7405821  41.5567226  46.9653776  22.1414705  41.3355940  38.8366562
  21.3513759  41.5913469  38.3606673  22.6325953  42.1504278  38.9418603
  36.1578515  48.6761179  41.5871843  36.9795958  48.2741367  41.3054525
  36.1540918  48.5729414  42.5387959  24.0929451  41.7000520  35.7950039
  23.2960614  41.8119214  36.3133535  23.8655043  42.0387172  34.9290929
  29.9235118  48.2245223  43.7432553  29.9879551  48.6865630  44.5790725
  29.2146042  47.5942588  43.8714863  20.4252408  41.5886431  41.2681553
  20.6760447  42.4733441  41.5339129  20.9611957  41.4091032  40.4956645
  29.6383136  49.8913330  33.6111534  29.5028811  50.7364866  34.0396382
  30.1792948  50.0932608  32.8477468  26.1250475  35.9704910  50.2725889
  25.7317421  35.4171109  50.9473533  26.9416616  36.2815489  50.6632407
  23.0912533  47.4088768  34.1839459  23.6037054  48.2032019  34.3345024
  23.7435246  46.7115059  34.1173060  24.9007418  50.5254525  36.2662212
  25.0774046  51.4472489  36.0783196  25.6964251  50.2112944  36.6956592
  29.0418436  37.3862789  47.8646146  29.7828150  37.9869942  47.7850608
  29.2736359  36.6440427  47.3064188  24.1859774  42.5719156  46.1424375
  24.0713290  41.6704414  46.4431474  23.3304292  42.8182853  45.7909192
  26.0238733  52.0432698  42.2672554  26.5746158  51.9149762  41.4949548
  25.1850209  52.3427587  41.9167447  32.9875599  33.4143892  42.1410427
  32.6439869  34.3045534  42.0649538  33.3554562  33.2245550  41.2780012
  21.0561450  45.7377423  34.9599029  21.8936672  46.1474431  34.7432737
  21.2339718  44.7976865  34.9299223  32.9525882  43.4052503  30.6482862
  32.4372506  44.1757108  30.8871250  32.6803191  42.7317639  31.2715924
  30.5372993  38.2502204  35.7068101  29.6814589  37.8609054  35.5273739
  30.9499945  38.3294165  34.8467886  32.0672140  35.7848547  40.1059660
  31.5636935  35.7478682  39.2927466  32.3602747  36.6941290  40.1656317
  28.3115026  35.8687277  39.1125842  29.1768022  35.6730086  38.7531732
  28.3792535  35.6397629  40.0395199  37.9260156  46.1584858  32.5836036
  37.1489599  45.8196017  32.1391198  38.6051637  46.1637481  31.9091001
  32.7412185  41.2779595  32.4742644  32.4362321  41.5925745  33.3252787
  33.6942627  41.3561015  32.5169977  31.1858617  47.4369819  34.1235598
  30.6579979  46.7022578  33.8108835  30.6846120  48.2144495  33.8775566
  36.1651463  45.6318839  39.2402644  35.5075138  46.3218101  39.3282772
  36.9691862  46.0215271  39.5836630  25.9177345  38.0989485  36.4842209
  26.4921097  37.8764666  35.7515402  26.5048327  38.1678179  37.2370810
  34.9756922  43.9863212  37.2906586  35.4888804  44.6193204  37.7928295
  35.6258146  43.3864407  36.9249946  26.2446932  40.1293946  30.5038094
  25.4084244  40.4668632  30.8247369  26.1051701  39.9942926  29.5665231
  28.2200012  34.9730734  35.2117278  27.5664425  34.6579751  34.5873893
  28.1780487  34.3506474  35.9377101  29.3311217  45.2550029  27.1270571
  28.4238279  45.0239282  27.3261720  29.8282249  44.4587648  27.3144552
  32.2379296  53.9647536  30.0467257  31.5640995  54.2679233  30.6552215
  32.6245118  54.7676616  29.6972714  31.4537753  41.4612667  39.5364926
  30.5360314  41.6827614  39.3786614  31.8697896  41.5358978  38.6776633
  32.2372801  42.8604083  34.6667606  32.9844620  43.3725480  34.3574728
  32.5064390  42.5388136  35.5272000  30.5099451  45.3562624  31.6494561
  29.6010670  45.0721657  31.7467030  30.5394535  45.7761702  30.7897867
  35.7418718  48.9669213  35.4185728  35.2881045  48.1260123  35.4750919
  35.1112685  49.6030612  35.7560508  34.6851638  39.8961199  36.6486396
  33.9474395  39.3838586  36.9796638  34.9378411  39.4561581  35.8369673
  34.1851657  50.8045710  36.3535546  34.4774632  51.3650767  35.6347912
  34.6950278  51.0974271  37.1088705  34.7863265  32.6737451  37.2428165
  35.0922142  31.8134815  36.9554080  35.5115870  33.2655072  37.0427159
  21.0787621  43.0768138  35.6309763  20.8812021  42.4837499  34.9060829
  20.5234285  42.7720348  36.3485702  29.0584345  42.9691244  37.7504356
  29.1132955  42.0165081  37.6746833  28.2475547  43.1250683  38.2345654
  30.2075539  46.8971367  28.9882639  29.7694968  46.1807226  28.5288277
  30.9485979  47.1247482  28.4267731  26.9976705  41.5868304  35.5094735
  26.1844570  41.8862475  35.9159927  27.4935699  41.1923993  36.2269217
  29.1485283  51.5826061  37.4429000  29.1061461  51.8086907  36.5137532
  30.0647981  51.3489436  37.5914801  32.5950916  42.0510129  44.3409629
  32.9500304  42.2781602  45.2004095  33.2423048  42.3828505  43.7186884
  38.3248653  45.1728564  35.0458958  38.1866552  45.3630160  34.1180147
  37.9684872  45.9347947  35.5027009  26.4890779  39.1586660  41.1255970
  27.1290159  39.0175419  40.4278933  25.6568310  38.8721173  40.7494572
  38.3518033  47.2405091  40.0570229  38.7854540  47.1480381  40.9053283
  39.0649614  47.2162592  39.4190245  27.2651083  48.4589090  37.2390962
  28.0591682  47.9639410  37.0373537  26.5542776  47.9306953  36.8758668
  32.0845928  50.8407186  41.5903330  32.1382950  51.4098122  42.3581046
  31.2160709  51.0109071  41.2257367  23.5733847  42.6032172  33.3150715
  22.6431435  42.5416627  33.5320677  23.6691319  42.0808125  32.5187356
  23.4919396  39.1286985  35.9028957  23.7526213  40.0432318  35.7938117
  24.3136568  38.6611427  36.0525569  24.9644321  40.5424742  43.0727781
  25.6367375  40.3342104  42.4240430  24.1374108  40.3446828  42.6333013
  30.8669893  37.1686683  45.0893442  30.2197808  37.8676632  44.9957918
  31.6370909  37.6022827  45.4569690  34.2748691  47.4335535  48.1643995
  34.1234198  47.2046087  47.2474079  34.2653371  48.3906136  48.1775340
  31.0434028  45.0067448  43.1490262  31.9726088  45.1578607  42.9759229
  30.6225058  45.0951468  42.2938908  29.8422359  49.0318112  40.9188799
  29.7033445  48.6636896  41.7914737  29.0536956  49.5465751  40.7472757
  30.4370511  54.1327209  32.2614336  30.6122267  53.6615252  33.0759959
  29.7503299  54.7592975  32.4895597  31.3927575  48.4099715  38.3077637
  31.0577407  48.3700485  39.2035287  30.8931520  47.7444431  37.8348047
  25.3671818  43.8167345  43.8330218  25.2291616  43.0847584  44.4341757
  26.2776742  43.7276245  43.5514406  34.3286766  45.7555749  28.5814697
  33.7115937  45.0302577  28.4847749  33.8603255  46.5165109  28.2381771
  27.9954119  43.5287304  43.3213898  28.7053738  42.8880496  43.2800516
  27.9523427  43.7800199  44.2440079  26.7083053  40.5152522  45.1409537
  26.1720410  40.0643260  45.7931134  26.1199762  40.6498431  44.3980002
  26.1185312  39.9741173  27.7036001  25.2414778  39.8529974  27.3398248
  26.5943065  39.1827252  27.4514890  35.9858305  48.4294241  44.4734457
  35.0985084  48.0920163  44.5960856  36.5556856  47.6977273  44.7103222
  17.6387452  44.7618333  37.7977508  18.3258492  44.4480063  37.2098524
  17.4835581  45.6659698  37.5244760  22.4422174  39.6508530  42.2262532
  22.3580363  39.0434199  41.4912942  21.6204881  40.1417548  42.2272028
  29.5159458  53.0895694  41.4395700  29.4429630  53.8950665  41.9515005
  29.0736852  53.2887660  40.6143721  29.3049238  52.3267464  34.9498522
  28.5216760  52.8689144  35.0436746  30.0041983  52.8441443  35.3492763
  32.6145888  38.1362093  37.5932727  33.1114588  37.3832056  37.2733797
  31.8432870  38.1726410  37.0275936  33.6975669  46.8933780  35.1671150
  32.7631948  47.0135243  34.9975855  33.8752337  45.9906247  34.9031160
  29.1980857  40.2779476  37.3204412  28.8278644  39.7250517  38.0085317
  29.6939949  39.6737610  36.7679412  37.0848220  42.7351100  35.7021185
  37.5508672  43.5679091  35.6281487  37.5355721  42.2696081  36.4066443
  27.0270056  50.7376971  44.4159430  27.7279515  51.3713454  44.5688824
  26.5565171  51.0791703  43.6555069  35.1524451  49.0794921  32.7007337
  35.4284295  48.9651516  33.6101211  34.2828950  48.6812406  32.6619510
  35.0564883  35.1031687  39.7412086  34.1427963  35.3335914  39.9094293
  35.4857984  35.1870131  40.5926118  34.8271342  43.2921579  42.2411980
  34.1742792  43.5397486  41.5864433  35.2051721  42.4785717  41.9074457
  31.7878515  53.3281272  36.3440150  31.9700910  52.5102928  36.8067903
  32.6111501  53.5448964  35.9065040  32.1220681  52.2549457  33.6055199
  32.6508447  51.7441912  32.9925361  32.3848900  51.9391987  34.4700732
  30.8758915  44.0341390  48.7278017  30.1999552  43.9335519  49.3980392
  31.6986548  43.8780603  49.1914014  22.6237774  50.2713326  41.3490532
  23.2091210  49.5257014  41.4818436  22.4262612  50.5817283  42.2327196
  25.4776429  53.3064574  36.3652975  24.8086804  53.7910701  35.8817015
  25.3389299  53.5533794  37.2796353  17.2155428  42.8418926  40.0694975
  17.2539528  42.3082517  40.8632093  16.7095721  42.3154132  39.4505953
  29.6181697  55.3408317  42.9635633  30.1700005  55.5039939  43.7284718
  29.9587891  55.9312755  42.2915658  24.5946191  37.6883467  43.5657518
  24.6587517  38.5498298  43.1534915  24.5313311  37.0757469  42.8329876
  24.0698463  39.7606600  47.2130552  24.6970502  39.3783677  47.8268076
  23.2126382  39.5420801  47.5786244  20.8464006  41.5683029  33.1448907
  21.1417447  40.6593707  33.0915960  19.9452042  41.5470768  32.8229909
  32.7550085  53.2890293  39.9499315  32.6301224  52.4880033  39.4410261
  33.4129176  53.7836486  39.4613285  24.3758253  39.6439025  39.1276455
  23.6544839  40.2574993  38.9883929  25.1651509  40.1796790  39.0493101
  34.8184993  51.0899313  41.5778865  33.8715329  50.9704664  41.5057192
  35.1667766  50.2021811  41.6605127  27.1784566  36.9793452  45.4017107
  27.7018968  37.2255748  46.1643416  26.9596900  37.8113487  44.9820244
  22.5751848  39.2497126  33.2688232  22.2464554  38.3694505  33.0863338
  22.9291218  39.1944795  34.1564621  31.8231426  50.8852029  37.7783217
  31.6756389  49.9568736  37.9590787  32.6484920  50.9072120  37.2940293
  25.6893671  39.5370096  33.6363710  26.0289743  40.0656017  32.9142318
  26.1365791  39.8750502  34.4122276  35.4265548  51.7080588  38.8648090
  36.3512096  51.5023449  38.7272541  35.2580852  51.4596989  39.7737432
  28.3837111  37.9207147  43.0866778  28.0433932  37.1214960  43.4887458
  27.6776118  38.2208858  42.5143611  29.0353583  35.0056459  41.5394101
  29.8579653  34.5316937  41.4172991  29.2791647  35.7846943  42.0392787
  27.6761818  38.0344718  31.8357002  28.3970180  38.4125970  31.3320719
  27.0527122  38.7533594  31.9391980  31.8192941  38.7389867  32.7715335
  32.0356555  39.6214505  32.4704163  31.3387008  38.3476080  32.0420977
  26.5592162  41.6975580  39.3486079  26.4136743  42.0115883  40.2410361
  26.0817366  42.3160480  38.7956978  28.4188545  38.6878128  39.3966969
  28.4050114  37.7919221  39.0599267  29.1360973  38.6948792  40.0305255
  30.2714676  39.1215468  41.4420096  30.0132453  40.0432539  41.4404427
  29.7399716  38.7245903  42.1320560  35.2160864  52.2266255  34.2210182
  35.3897742  51.6612678  33.4684034  35.7089756  53.0267150  34.0389672
  21.0337824  44.2380924  42.2873740  20.4891292  45.0140732  42.4194015
  21.9117174  44.5851729  42.1292862  27.8225441  37.5692508  34.6654539
  27.9441352  36.6409154  34.8645426  27.5327483  37.5831194  33.7532854
  30.6916631  35.2547419  37.8021259  30.7138328  35.3186752  36.8473238
  31.1084690  34.4151927  37.9961765  41.0700256  44.9902678  35.8400481
  41.5131402  44.2410003  35.4419605  40.1926766  44.9812814  35.4574213
  36.2036037  51.5433020  31.3207080  36.8986942  52.1639712  31.5394395
  36.5459187  50.6928371  31.5959458  21.8203846  43.3650821  45.1803897
  21.0785582  43.5133456  45.7668528  21.4996590  43.6259086  44.3170647
  38.1027460  48.9932725  32.8494411  38.6278784  49.3319998  32.1243731
  38.0149813  48.0579740  32.6657545  29.7868121  55.0604708  37.2089664
  29.3473111  54.5681087  37.9022521  30.5376238  54.5177676  36.9681739
  22.2660460  51.2516249  37.2114292  23.0918480  50.9520021  36.8312935
  21.9154512  50.4823872  37.6604081  27.2341993  50.6042717  39.2811966
  26.6122002  49.9413423  38.9814193  27.9046860  50.6303849  38.5985613
  20.4669065  49.1702576  38.1703226  19.6300973  48.7424750  37.9887227
  20.4392710  49.3635019  39.1074017  27.3066520  39.0824506  48.8744472
  27.3554676  39.9586628  48.4922241  27.8489035  38.5401899  48.3016115
  26.7955500  49.1546641  32.7570426  26.9443620  49.8382105  32.1037099
  27.6021943  49.1351731  33.2719882  35.2023004  42.4589023  46.7837644
  36.1032866  42.3195488  46.4921642  35.2770978  42.6243478  47.7235821
  29.5365809  39.8355878  45.6290830  28.6669118  40.1289444  45.3573419
  29.7725289  40.4196323  46.3498094  40.6133120  46.4607916  38.2322929
  41.4480012  46.8997721  38.3960489  40.7492249  45.9846570  37.4131175
  24.5508133  45.1811818  33.7631495  24.3054175  44.2774148  33.9611705
  24.7204047  45.1828969  32.8210973  32.2404843  36.0535495  43.1456251
  32.7586787  36.7896522  42.8202739  31.8859975  36.3599488  43.9803010
  23.8203780  40.9140176  31.2617656  23.1273025  40.9884531  30.6057692
  23.5755532  40.1500520  31.7839173  32.4917437  32.4735777  38.6657147
  32.7719191  31.8058966  39.2917574  33.2768044  32.6664873  38.1531811
  30.2950905  51.6494771  30.2282174  29.7224872  52.2684958  29.7752645
  30.8683699  52.1994133  30.7622095  36.3626295  40.8953411  42.4128722
  37.3143718  40.9951509  42.4340946  36.1929746  40.1031680  42.9226807
  34.3840675  37.9808995  42.5988123  33.7890607  38.2614007  41.9034612
  34.0990371  38.4702896  43.3704864  33.5148165  51.9331921  31.3590756
  34.4478838  51.8677483  31.5623631  33.4271378  52.7688188  30.9005288
  36.1436182  51.2497792  28.3194703  36.0649813  50.9157655  29.2130461
  36.9645849  51.7419560  28.3186176  38.8414373  44.1159531  41.5271022
  38.8090693  43.1775532  41.7130706  39.4514997  44.1943568  40.7936847
  30.6797704  42.9855584  27.5698226  31.6256809  42.8561792  27.6386644
  30.3011949  42.2470246  28.0467654  38.9908861  40.9070574  41.5729305
  38.4747910  40.1229031  41.3859234  39.8748810  40.5789291  41.7375825
  36.6519588  34.6511590  37.5325118  36.4544410  34.3426678  38.4168450
  37.2619294  35.3773229  37.6623048  30.5636396  47.0373330  49.0298883
  31.4839406  47.2151929  49.2238930  30.5285979  46.0929376  48.8778582
  28.8640621  40.9105560  27.5053111  27.9572076  40.6138673  27.5815825
  29.1416602  40.6135379  26.6387397  19.7818561  42.2311924  37.9552158
  19.4621346  41.3777232  37.6626532  19.2351990  42.4460502  38.7110125
  23.5598469  44.9474365  41.6721664  23.7784479  45.8791473  41.6909698
  23.9724243  44.5882339  42.4576468  30.4802687  35.4542450  33.6597353
  29.6703415  35.1089535  34.0352599  31.1687104  35.1449994  34.2484964
  32.4093235  34.5320497  35.2821649  32.9624274  34.9515950  35.9411672
  32.6463321  33.6056245  35.3244605  28.4326334  40.5207571  51.0624413
  28.3323061  41.4701928  50.9936504  28.2147876  40.1925809  50.1900483
  27.6339406  37.7692496  27.6465090  28.4958570  38.0947394  27.9060908
  27.8189750  36.9823992  27.1338156  19.6506821  45.8514835  39.9245279
  18.9570293  45.4368788  39.4115234  20.3979812  45.8935372  39.3278698
  35.7872042  36.6421022  34.7900313  35.2070711  37.3005826  34.4078366
  35.5207975  35.8198367  34.3787731  34.2375608  36.0426080  36.9921634
  34.7375387  36.1542614  36.1835953  34.8811216  35.7387133  37.6322442
  28.2957604  43.9504709  49.8789475  27.8124686  44.7505070  50.0853364
  28.3818543  43.9612654  48.9256919  21.5643564  45.7833089  37.8011294
  21.5414252  45.8820776  36.8493177  21.8744200  46.6298240  38.1228460
  24.2230942  47.8409244  41.9157909  25.1774195  47.8093186  41.8487840
  24.0243465  47.3799868  42.7308134  24.8130324  46.4110360  44.4828706
  25.6323213  46.9054439  44.5063543  25.0867132  45.4942328  44.4546274
  34.5696920  38.8021112  33.8456662  33.6822775  39.0870763  33.6276856
  34.9850909  38.6414876  32.9983939  37.9211456  38.8267633  37.5611001
  38.6971846  39.3164086  37.8335618  37.1959590  39.2525688  38.0182870
  40.3584015  39.5395253  38.6184942  40.9528506  39.2990989  37.9078250
  40.4310599  38.8202383  39.2458478  22.5781171  53.3828864  38.9328106
  22.4435639  52.6229265  38.3666104  22.1613233  54.1069763  38.4656895
  33.7140134  48.5665787  27.9404682  34.4175984  48.7715790  28.5562337
  32.9902782  49.1342549  28.2053765  34.5437944  44.3175648  34.0606952
  34.4873145  44.7744200  33.2214584  35.0966286  43.5566333  33.8829795
  38.3542750  40.1065380  34.8857071  38.0979684  39.7062016  35.7165279
  37.7295618  40.8209174  34.7607211  42.6655088  42.8461454  37.3928363
  42.1054646  42.9154643  38.1659925  42.0598591  42.6702438  36.6727859
  25.7350296  54.2798181  39.1446549  25.6182681  55.2243613  39.0425239
  24.9142743  53.9771742  39.5332348  35.6226831  49.0048316  29.9903142
  36.4572435  48.5729515  29.8080617  35.4611174  48.8330330  30.9180036
  35.2772723  45.5080430  31.3559481  35.2221527  45.3424701  30.4147925
  34.6518778  46.2156463  31.5121671  20.0665238  40.7448494  45.1820903
  20.7124102  40.2347448  45.6708128  19.8582389  41.4817176  45.7564328
  28.5868849  35.0088539  30.9344799  28.5747518  35.9530379  31.0913070
  29.4792271  34.8258684  30.6404261  26.7604811  54.9326443  42.3602477
  27.6632057  54.9650053  42.6768972  26.5342181  54.0026893  42.3748813
  32.4020968  31.6031315  35.1890736  31.6353364  31.0489802  35.3347419
  32.8131673  31.6753184  36.0504888  24.4062729  37.8916111  49.2795917
  25.2694191  37.5352916  49.4899242  23.8328140  37.5530006  49.9671322
  44.2511106  59.5217967  40.0858318  44.8889516  59.4024715  39.3821659
  44.1331949  60.4698811  40.1446271  38.7609092  58.2433643  29.3536783
  39.0134612  57.7215164  28.5920246  37.8233651  58.0799788  29.4563467
  43.8052375  57.2469421  37.1611527  44.5915464  56.8288844  36.8101944
  44.0691079  58.1515513  37.3293175  43.9762452  62.6842272  31.8600183
  43.3408285  62.7576898  32.5721088  43.6459858  63.2735870  31.1819263
  40.8236921  59.6071896  35.2607847  40.4595129  59.0802517  35.9720769
  41.6804037  59.2170365  35.0874333  40.4642408  54.6361796  30.2569196
  40.6316811  55.5042032  30.6239667  40.2739577  54.7989077  29.3330485
  36.6730223  59.5492571  37.9571731  35.7480720  59.4168786  38.1649423
  36.9214636  60.3286791  38.4541673  40.4431629  57.0919453  31.2415863
  40.3231254  57.5376504  32.0801343  39.7484218  57.4404771  30.6829401
  34.0339034  59.1925845  38.7915520  34.1631415  59.4460324  39.7054932
  33.3536485  59.7853553  38.4720175  46.1416695  57.5640926  32.0696197
  47.0534552  57.7968313  31.8943894  45.6326343  58.1477971  31.5071275
  48.6275510  63.4821183  36.8154142  47.9426548  63.8620084  36.2651175
  48.7119359  64.0916509  37.5486090  39.2383126  58.4064305  33.5349429
  39.9407169  58.8585349  34.0023355  38.9063754  57.7648124  34.1629322
  32.9808460  56.6647858  38.8366562  32.1907514  56.9205386  38.3606673
  33.4719707  57.4796196  38.9418603  34.9323205  57.0292437  35.7950039
  34.1354368  57.1411131  36.3133535  34.7048797  57.3679089  34.9290929
  31.2646163  56.9178348  41.2681553  31.5154201  57.8025358  41.5339129
  31.8005711  56.7382950  40.4956645  55.0878262  60.3491846  37.9356814
  54.3341971  59.7799244  37.7800819  55.2225803  60.3154510  38.8827449
  43.7919637  58.7344421  30.6482862  43.2766260  59.5049026  30.8871250
  43.5196945  58.0609557  31.2715924  39.1508780  51.1979195  39.1125842
  40.0161777  51.0022003  38.7531732  39.2186289  50.9689546  40.0395199
  48.7653911  61.4876776  32.5836036  47.9883354  61.1487935  32.1391198
  49.4445392  61.4929399  31.9091001  43.5805940  56.6071513  32.4742644
  43.2756075  56.9217662  33.3252787  44.5336382  56.6852933  32.5169977
  42.0252372  62.7661736  34.1235598  41.4973733  62.0314496  33.8108835
  41.5239874  63.5436413  33.8775566  47.0045218  60.9610757  39.2402644
  46.3468892  61.6510018  39.3282772  47.8085617  61.3507189  39.5836630
  36.7571099  53.4281403  36.4842209  37.3314851  53.2056584  35.7515402
  37.3442082  53.4970097  37.2370810  45.8150676  59.3155129  37.2906586
  46.3282558  59.9485121  37.7928295  46.4651900  58.7156325  36.9249946
  37.0840686  55.4585864  30.5038094  36.2477999  55.7960550  30.8247369
  36.9445456  55.3234843  29.5665231  39.0593767  50.3022651  35.2117278
  38.4058179  49.9871669  34.5873893  39.0174241  49.6798392  35.9377101
  43.0773051  69.2939454  30.0467257  42.4034749  69.5971151  30.6552215
  43.4638873  70.0968534  29.6972714  42.2931507  56.7904585  39.5364926
  41.3754069  57.0119532  39.3786614  42.7091651  56.8650896  38.6776633
  43.0766555  58.1896001  34.6667606  43.8238374  58.7017398  34.3574728
  43.3458145  57.8680053  35.5272000  41.3493205  60.6854541  31.6494561
  40.4404424  60.4013574  31.7467030  41.3788289  61.1053620  30.7897867
  46.5812473  64.2961131  35.4185728  46.1274800  63.4552041  35.4750919
  45.9506439  64.9322529  35.7560508  31.9181376  58.4060056  35.6309763
  31.7205775  57.8129416  34.9060829  31.3628040  58.1012266  36.3485702
  39.8978099  58.2983162  37.7504356  39.9526709  57.3456998  37.6746833
  39.0869301  58.4542601  38.2345654  37.8370459  56.9160222  35.5094735
  37.0238325  57.2154392  35.9159927  38.3329453  56.5215911  36.2269217
  49.1642408  60.5020482  35.0458958  49.0260306  60.6922078  34.1180147
  48.8078627  61.2639865  35.5027009  37.3284534  54.4878577  41.1255970
  37.9683913  54.3467336  40.4278933  36.4962065  54.2013091  40.7494572
  49.1911787  62.5697009  40.0570229  49.6248294  62.4772298  40.9053283
  49.9043368  62.5454510  39.4190245  34.3313150  54.4578902  35.9028957
  34.5919968  55.3724236  35.7938117  35.1530323  53.9903345  36.0525569
  50.0527337  62.6120710  42.5903115  50.2463227  63.5166520  42.8362390
  49.9527955  62.1528129  43.4241700  41.2764266  69.4619126  32.2614336
  41.4516022  68.9907169  33.0759959  40.5897054  70.0884892  32.4895597
  45.1680521  61.0847667  28.5814697  44.5509691  60.3594495  28.4847749
  44.6997009  61.8457027  28.2381771  36.9579067  55.3033091  27.7036001
  36.0808533  55.1821892  27.3398248  37.4336820  54.5119169  27.4514890
  44.5369423  62.2225698  35.1671150  43.6025702  62.3427161  34.9975855
  44.7146092  61.3198165  34.9031160  40.0374611  55.6071394  37.3204412
  39.6672399  55.0542434  38.0085317  40.5333704  55.0029527  36.7679412
  47.9241975  58.0643017  35.7021185  48.3902427  58.8971009  35.6281487
  48.3749475  57.5987999  36.4066443  45.9918206  64.4086839  32.7007337
  46.2678050  64.2943433  33.6101211  45.1222705  64.0104324  32.6619510
  45.6665096  58.6213496  42.2411980  45.0136546  58.8689404  41.5864433
  46.0445476  57.8077635  41.9074457  28.0549183  58.1710844  40.0694975
  28.0933282  57.6374435  40.8632093  27.5489476  57.6446050  39.4505953
  31.6857760  56.8974946  33.1448907  31.9811201  55.9885625  33.0915960
  30.7845796  56.8762686  32.8229909  35.2152007  54.9730943  39.1276455
  34.4938593  55.5866911  38.9883929  36.0045263  55.5088708  39.0493101
  33.4145602  54.5789044  33.2688232  33.0858308  53.6986423  33.0863338
  33.7684973  54.5236713  34.1564621  36.5287425  54.8662014  33.6363710
  36.8683498  55.3947935  32.9142318  36.9759546  55.2042420  34.4122276
  46.2659303  67.0372505  38.8648090  47.1905850  66.8315367  38.7272541
  46.0974606  66.7888907  39.7737432  39.2230866  53.2499064  43.0866778
  38.8827686  52.4506878  43.4887458  38.5169872  53.5500775  42.5143611
  38.5155572  53.3636635  31.8357002  39.2363935  53.7417888  31.3320719
  37.8920876  54.0825512  31.9391980  42.6586695  54.0681784  32.7715335
  42.8750310  54.9506422  32.4704163  42.1780762  53.6767998  32.0420977
  37.3985917  57.0267498  39.3486079  37.2530497  57.3407801  40.2410361
  36.9211120  57.6452398  38.7956978  39.2582299  54.0170046  39.3966969
  39.2443868  53.1211139  39.0599267  39.9754728  54.0240709  40.0305255
  41.1108430  54.4507386  41.4420096  40.8526208  55.3724456  41.4404427
  40.5793471  54.0537820  42.1320560  46.0554619  67.5558173  34.2210182
  46.2291496  66.9904595  33.4684034  46.5483510  68.3559068  34.0389672
  38.6619195  52.8984426  34.6654539  38.7835107  51.9701072  34.8645426
  38.3721238  52.9123112  33.7532854  51.9094010  60.3194596  35.8400481
  52.3525156  59.5701921  35.4419605  51.0320520  60.3104732  35.4574213
  47.0429791  66.8724937  31.3207080  47.7380696  67.4931630  31.5394395
  47.3852942  66.0220288  31.5959458  48.9421215  64.3224643  32.8494411
  49.4672539  64.6611916  32.1243731  48.8543567  63.3871658  32.6657545
  51.4526875  61.7899834  38.2322929  52.2873766  62.2289638  38.3960489
  51.5886004  61.3138487  37.4131175  34.6597535  56.2432094  31.2617656
  33.9666780  56.3176449  30.6057692  34.4149287  55.4792437  31.7839173
  44.3541920  67.2623839  31.3590756  45.2872593  67.1969401  31.5623631
  44.2665132  68.0980106  30.9005288  46.9829936  66.5789709  28.3194703
  46.9043568  66.2449573  29.2130461  47.8039603  67.0711477  28.3186176
  49.6808127  59.4451449  41.5271022  49.6484448  58.5067449  41.7130706
  50.2908751  59.5235485  40.7936847  41.5191458  58.3147502  27.5698226
  42.4650563  58.1853710  27.6386644  41.1405703  57.5762164  28.0467654
  39.7034376  56.2397478  27.5053111  38.7965831  55.9430591  27.5815825
  39.9810357  55.9427296  26.6387397  30.6212316  57.5603842  37.9552158
  30.3015100  56.7069150  37.6626532  30.0745744  57.7752420  38.7110125
  41.3196441  50.7834368  33.6597353  40.5097170  50.4381453  34.0352599
  42.0080858  50.4741912  34.2484964  43.2486990  49.8612415  35.2821649
  43.8018028  50.2807868  35.9411672  43.4857076  48.9348163  35.3244605
  38.4733160  53.0984413  27.6465090  39.3352324  53.4239312  27.9060908
  38.6583504  52.3115909  27.1338156  45.4090675  54.1313030  33.8456662
  44.5216530  54.4162681  33.6276856  45.8244664  53.9706794  32.9983939
  44.5533888  63.8957705  27.9404682  45.2569738  64.1007707  28.5562337
  43.8296537  64.4634467  28.2053765  45.3831698  59.6467566  34.0606952
  45.3266900  60.1036118  33.2214584  45.9360041  58.8858251  33.8829795
  46.4620585  64.3340234  29.9903142  47.2966189  63.9021433  29.8080617
  46.3004928  64.1622248  30.9180036  46.1166478  60.8372347  31.3559481
  46.0615281  60.6716619  30.4147925  45.4912533  61.5448380  31.5121671
  43.4312385  63.1421259  50.6813044  44.3003544  63.3161911  50.3199679
  42.9519136  63.9615676  50.5588773  39.4262603  50.3380456  30.9344799
  39.4141273  51.2822296  31.0913070  40.3186025  50.1550602  30.6404261
  43.2414723  46.9323233  35.1890736  42.4747118  46.3781720  35.3347419
  43.6525428  47.0045102  36.0504888  55.0904861  74.8509885  40.0858318
  55.7283271  74.7316632  39.3821659  54.9725703  75.7990729  40.1446271
  51.8994567  74.8037313  40.0219843  51.5613078  74.6878378  39.1340378
  52.7684335  74.4028478  40.0020849  47.7581383  76.6572790  36.0116734
  47.1946248  76.5662727  35.2433022  47.6433778  75.8372694  36.4919227
  52.3814350  75.9572165  45.9806049  52.3702991  75.5624963  45.1086552
  52.5434989  75.2238238  46.5739820  45.3045814  78.1523981  38.8500955
  46.0967106  77.8114806  38.4347254  45.5442465  78.2618956  39.7703108
  53.3380941  80.3243757  31.3231199  52.6868921  80.9097838  30.9365213
  54.1325304  80.8549952  31.3826236  47.2636568  77.4132895  31.7218333
  48.0367444  76.8661882  31.5831209  47.6161967  78.2777144  31.9332795
  49.1021611  78.7409277  44.9285233  48.8111477  79.6454908  44.8131899
  49.7378595  78.7825804  45.6429302  50.0277818  76.1186125  41.5186592
  50.6241390  75.8942148  40.8043555  50.0852789  75.3770871  42.1212040
  49.6002846  73.5725561  29.3536783  49.8528367  73.0507082  28.5920246
  48.6627405  73.4091706  29.4563467  54.6446129  72.5761339  37.1611527
  55.4309218  72.1580762  36.8101944  54.9084833  73.4807431  37.3293175
  54.8156206  78.0134189  31.8600183  54.1802039  78.0868816  32.5721088
  54.4853613  78.6027788  31.1819263  60.0454556  72.5136572  38.0644505
  60.7779728  71.9435789  38.2982335  59.2893912  72.1258173  38.5051011
  49.3199135  75.4753667  31.5561158  49.2035393  74.7998570  32.2242243
  49.4301395  74.9886041  30.7393311  51.6630676  74.9363814  35.2607847
  51.2988883  74.4094435  35.9720769  52.5197792  74.5462283  35.0874333
  57.5679977  66.2258146  42.5239114  57.2363301  67.0953557  42.3000329
  56.9725590  65.9094430  43.2033144  51.3036163  69.9653713  30.2569196
  51.4710565  70.8333950  30.6239667  51.1133332  70.1280995  29.3330485
  54.0611496  78.4270692  41.9235026  53.7612219  79.3295731  41.8150834
  53.7162556  78.1602876  42.7756179  47.5123978  74.8784489  37.9571731
  46.5874474  74.7460703  38.1649423  47.7608391  75.6578708  38.4541673
  57.4608640  70.9453232  39.6032464  56.5525517  70.8768641  39.3091225
  57.4096236  71.4225177  40.4314289  51.2825384  72.4211371  31.2415863
  51.1625009  72.8668422  32.0801343  50.5877972  72.7696689  30.6829401
  44.8732789  74.5217763  38.7915520  45.0025170  74.7752242  39.7054932
  44.1930240  75.1145471  38.4720175  49.0432276  85.1915013  34.8905994
  48.9656306  86.1422838  34.9694475  48.4393919  84.8460885  35.5480920
  51.5349506  72.3642878  47.5467361  50.7582840  72.9236798  47.5370226
  52.1740069  72.8499661  48.0682231  59.3270286  69.1469671  41.3810338
  58.6844667  69.4402204  40.7350132  58.8225215  69.0322591  42.1863534
  56.9810450  72.8932844  32.0696197  57.8928306  73.1260231  31.8943894
  56.4720097  73.4769888  31.5071275  49.7895878  75.1728331  47.1085328
  50.5310562  75.7113375  46.8320152  49.0832863  75.7994620  47.2656880
  55.2651218  77.3157472  45.7057489  55.6734574  76.8739882  44.9612122
  54.5428479  76.7410099  45.9591682  51.6182288  72.2530079  43.0791046
  52.4643483  72.6769492  43.2225695  51.5580925  71.5963703  43.7729610
  55.5880032  77.8758663  39.4609778  54.9588895  78.0404377  38.7585846
  55.2005694  78.2900272  40.2320742  59.4669264  78.8113100  36.8154142
  58.7820302  79.1912002  36.2651175  59.5513113  79.4208427  37.5486090
  54.7681733  69.9134447  44.7372220  54.5242665  70.6676508  44.2006496
  55.0441663  70.2919795  45.5719467  56.7220196  76.4573059  43.4149486
  56.9337091  77.1004819  42.7383867  56.6749944  75.6235376  42.9471416
  54.3246425  69.0690880  40.3186058  53.4630904  69.3672134  40.6102795
  54.3508859  69.2861279  39.3867090  51.1407994  77.6133071  36.7259863
  51.6046340  77.8920774  35.9364486  50.8764792  76.7116515  36.5432954
  48.0332075  77.1604552  39.6639627  48.6033432  77.5891821  39.0257111
  48.6240187  76.8787137  40.3623812  50.0776880  73.7356223  33.5349429
  50.7800924  74.1877267  34.0023355  49.7457509  73.0940042  34.1629322
  48.5257242  72.3267980  47.9100638  47.8955902  73.0084260  48.1436035
  48.4193330  72.2151061  46.9653776  43.8202214  71.9939776  38.8366562
  43.0301268  72.2497304  38.3606673  44.3113462  72.8088113  38.9418603
  57.8366024  79.3345015  41.5871843  58.6583467  78.9325202  41.3054525
  57.8328427  79.2313249  42.5387959  45.7716960  72.3584355  35.7950039
  44.9748123  72.4703049  36.3133535  45.5442552  72.6971007  34.9290929
  51.6022627  78.8829058  43.7432553  51.6667060  79.3449465  44.5790725
  50.8933551  78.2526423  43.8714863  65.9272017  75.6783763  37.9356814
  65.1735725  75.1091161  37.7800819  66.0619558  75.6446428  38.8827449
  51.3170645  80.5497166  33.6111534  51.1816320  81.3948701  34.0396382
  51.8580457  80.7516443  32.8477468  47.8037984  66.6288745  50.2725889
  47.4104930  66.0754944  50.9473533  48.6204125  66.9399324  50.6632407
  44.7700042  78.0672604  34.1839459  45.2824563  78.8615854  34.3345024
  45.4222755  77.3698894  34.1173060  46.5794927  81.1838360  36.2662212
  46.7561555  82.1056325  36.0783196  47.3751760  80.8696779  36.6956592
  50.7205945  68.0446625  47.8646146  51.4615659  68.6453778  47.7850608
  50.9523868  67.3024262  47.3064188  45.8647283  73.2302992  46.1424375
  45.7500799  72.3288249  46.4431474  45.0091801  73.4766689  45.7909192
  52.9439121  81.1720732  47.7411876  52.5002975  80.3857111  47.4232780
  53.6056335  81.3599883  47.0755767  47.7026242  82.7016534  42.2672554
  48.2533667  82.5733597  41.4949548  46.8637718  83.0011423  41.9167447
  55.0420359  81.4523532  45.7693277  55.0238835  82.2732413  45.2773546
  55.9640279  81.3277607  45.9943418  51.4993413  78.9667662  46.6116785
  52.0321750  78.2055950  46.3816093  50.9707495  78.6741313  47.3540940
  54.6663108  64.0727727  42.1410427  54.3227378  64.9629369  42.0649538
  55.0342071  63.8829385  41.2780012  42.7348959  76.3961258  34.9599029
  43.5724181  76.8058266  34.7432737  42.9127227  75.4560700  34.9299223
  54.6313391  74.0636339  30.6482862  54.1160015  74.8340943  30.8871250
  54.3590700  73.3901475  31.2715924  52.2160502  68.9086039  35.7068101
  51.3602098  68.5192890  35.5273739  52.6287454  68.9878000  34.8467886
  53.7459649  66.4432383  40.1059660  53.2424444  66.4062518  39.2927466
  54.0390256  67.3525125  40.1656317  49.9902535  66.5271112  39.1125842
  50.8555531  66.3313921  38.7531732  50.0580044  66.2981464  40.0395199
  59.6047665  76.8168693  32.5836036  58.8277108  76.4779853  32.1391198
  60.2839146  76.8221316  31.9091001  54.4199694  71.9363431  32.4742644
  54.1149830  72.2509580  33.3252787  55.3730136  72.0144851  32.5169977
  52.8646126  78.0953654  34.1235598  52.3367488  77.3606414  33.8108835
  52.3633629  78.8728330  33.8775566  57.8438972  76.2902674  39.2402644
  57.1862647  76.9801936  39.3282772  58.6479371  76.6799106  39.5836630
  47.5964854  68.7573320  36.4842209  48.1708606  68.5348502  35.7515402
  48.1835836  68.8262015  37.2370810  56.6544431  74.6447047  37.2906586
  57.1676313  75.2777039  37.7928295  57.3045655  74.0448243  36.9249946
  47.9234441  70.7877781  30.5038094  47.0871753  71.1252468  30.8247369
  47.7839210  70.6526761  29.5665231  49.8987521  65.6314569  35.2117278
  49.2451934  65.3163586  34.5873893  49.8567996  65.0090310  35.9377101
  51.0098726  75.9133864  27.1270571  50.1025788  75.6823118  27.3261720
  51.5069758  75.1171484  27.3144552  53.9166805  84.6231371  30.0467257
  53.2428504  84.9263068  30.6552215  54.3032627  85.4260452  29.6972714
  53.1325262  72.1196503  39.5364926  52.2147823  72.3411450  39.3786614
  53.5485405  72.1942813  38.6776633  53.9160310  73.5187918  34.6667606
  54.6632128  74.0309316  34.3574728  54.1851899  73.1971971  35.5272000
  52.1886960  76.0146459  31.6494561  51.2798179  75.7305492  31.7467030
  52.2182044  76.4345538  30.7897867  57.4206227  79.6253049  35.4185728
  56.9668554  78.7843959  35.4750919  56.7900194  80.2614447  35.7560508
  56.3639147  70.5545035  36.6486396  55.6261903  70.0422421  36.9796638
  56.6165920  70.1145416  35.8369673  55.8639166  81.4629545  36.3535546
  56.1562141  82.0234602  35.6347912  56.3737787  81.7558106  37.1088705
  56.4650774  63.3321287  37.2428165  56.7709651  62.4718650  36.9554080
  57.1903379  63.9238907  37.0427159  42.7575130  73.7351973  35.6309763
  42.5599530  73.1421334  34.9060829  42.2021794  73.4304183  36.3485702
  50.7371854  73.6275080  37.7504356  50.7920464  72.6748916  37.6746833
  49.9263056  73.7834519  38.2345654  51.8863048  77.5555203  28.9882639
  51.4482477  76.8391062  28.5288277  52.6273488  77.7831318  28.4267731
  48.6764214  72.2452139  35.5094735  47.8632079  72.5446310  35.9159927
  49.1723208  71.8507828  36.2269217  50.8272792  82.2409896  37.4429000
  50.7848970  82.4670743  36.5137532  51.7435490  82.0073271  37.5914801
  54.2738425  72.7093964  44.3409629  54.6287813  72.9365437  45.2004095
  54.9210557  73.0412341  43.7186884  60.0036162  75.8312400  35.0458958
  59.8654061  76.0213996  34.1180147  59.6472381  76.5931783  35.5027009
  48.1678288  69.8170495  41.1255970  48.8077668  69.6759254  40.4278933
  47.3355819  69.5305008  40.7494572  60.0305542  77.8988927  40.0570229
  60.4642049  77.8064216  40.9053283  60.7437123  77.8746427  39.4190245
  48.9438592  79.1172925  37.2390962  49.7379191  78.6223246  37.0373537
  48.2330285  78.5890789  36.8758668  53.7633437  81.4991021  41.5903330
  53.8170459  82.0681957  42.3581046  52.8948218  81.6692906  41.2257367
  45.2521356  73.2616007  33.3150715  44.3218944  73.2000463  33.5320677
  45.3478828  72.7391960  32.5187356  45.1706905  69.7870820  35.9028957
  45.4313722  70.7016153  35.7938117  45.9924077  69.3195263  36.0525569
  60.8921091  77.9412627  42.5903115  61.0856982  78.8458438  42.8362390
  60.7921710  77.4820047  43.4241700  52.5457402  67.8270518  45.0893442
  51.8985317  68.5260468  44.9957918  53.3158418  68.2606662  45.4569690
  55.9536200  78.0919370  48.1643995  55.8021707  77.8629922  47.2474079
  55.9440880  79.0489972  48.1775340  52.7221537  75.6651283  43.1490262
  53.6513597  75.8162443  42.9759229  52.3012567  75.7535304  42.2938908
  51.5209868  79.6901947  40.9188799  51.3820954  79.3220732  41.7914737
  50.7324465  80.2049587  40.7472757  52.1158020  84.7911044  32.2614336
  52.2909776  84.3199087  33.0759959  51.4290808  85.4176810  32.4895597
  53.0715083  79.0683550  38.3077637  52.7364916  79.0284320  39.2035287
  52.5719029  78.4028266  37.8348047  56.0074275  76.4139584  28.5814697
  55.3903446  75.6886413  28.4847749  55.5390764  77.1748945  28.2381771
  49.6741628  74.1871139  43.3213898  50.3841247  73.5464332  43.2800516
  49.6310936  74.4384034  44.2440079  57.6628407  81.1238493  46.2420477
  57.6040953  80.4397713  45.5751060  58.0647925  81.8657483  45.7901103
  48.3870562  71.1736357  45.1409537  47.8507919  70.7227096  45.7931134
  47.7987271  71.3082266  44.3980002  46.6819106  87.9400407  39.0354196
  46.9215704  88.5718931  39.7133215  45.8388302  87.5888447  39.3219555
  47.7972821  70.6325009  27.7036001  46.9202287  70.5113810  27.3398248
  48.2730574  69.8411087  27.4514890  57.6645814  79.0878077  44.4734457
  56.7772593  78.7503999  44.5960856  58.2344365  78.3561108  44.7103222
  51.1946967  83.7479529  41.4395700  51.1217139  84.5534501  41.9515005
  50.7524361  83.9471495  40.6143721  50.9836747  82.9851299  34.9498522
  50.2004269  83.5272979  35.0436746  51.6829492  83.5025279  35.3492763
  54.2933397  68.7945929  37.5932727  54.7902097  68.0415891  37.2733797
  53.5220379  68.8310245  37.0275936  62.1463155  74.4986294  39.2351018
  62.1353031  75.3811010  38.8644952  61.2780534  74.1457845  39.0405556
  53.6545651  83.6466363  43.5953859  54.3673623  84.2813828  43.5229760
  53.1635680  83.7430229  42.7793861  55.3763178  77.5517616  35.1671150
  54.4419457  77.6719078  34.9975855  55.5539846  76.6490083  34.9031160
  50.8768366  70.9363312  37.3204412  50.5066153  70.3834352  38.0085317
  51.3727458  70.3321445  36.7679412  58.7635729  73.3934935  35.7021185
  59.2296181  74.2262927  35.6281487  59.2143230  72.9279917  36.4066443
  48.7057565  81.3960807  44.4159430  49.4067024  82.0297290  44.5688824
  48.2352680  81.7375538  43.6555069  56.8311960  79.7378756  32.7007337
  57.1071804  79.6235351  33.6101211  55.9616459  79.3396241  32.6619510
  56.7352392  65.7615522  39.7412086  55.8215472  65.9919749  39.9094293
  57.1645493  65.8453966  40.5926118  56.5058850  73.9505414  42.2411980
  55.8530301  74.1981321  41.5864433  56.8839230  73.1369552  41.9074457
  53.4666024  83.9865107  36.3440150  53.6488419  83.1686763  36.8067903
  54.2899010  84.2032799  35.9065040  53.8008190  82.9133292  33.6055199
  54.3295956  82.4025747  32.9925361  54.0636409  82.5975823  34.4700732
  52.5546424  74.6925225  48.7278017  51.8787061  74.5919354  49.3980392
  53.3774057  74.5364439  49.1914014  44.3025283  80.9297162  41.3490532
  44.8878719  80.1840850  41.4818436  44.1050121  81.2401118  42.2327196
  47.1563938  83.9648409  36.3652975  46.4874313  84.4494537  35.8817015
  47.0176807  84.2117629  37.2796353  51.2969206  85.9992153  42.9635633
  51.8487514  86.1623774  43.7284718  51.6375400  86.5896590  42.2915658
  46.2733700  68.3467302  43.5657518  46.3375026  69.2082133  43.1534915
  46.2100820  67.7341304  42.8329876  56.1480081  80.8253410  48.8184287
  56.6919985  81.4383368  48.3239242  55.5666926  81.3832988  49.3351300
  42.5251515  72.2266864  33.1448907  42.8204956  71.3177542  33.0915960
  41.6239551  72.2054603  32.8229909  54.4337594  83.9474128  39.9499315
  54.3088733  83.1463868  39.4410261  55.0916685  84.4420321  39.4613285
  46.0545762  70.3022861  39.1276455  45.3332348  70.9158828  38.9883929
  46.8439018  70.8380625  39.0493101  56.4972502  81.7483148  41.5778865
  55.5502838  81.6288499  41.5057192  56.8455275  80.8605646  41.6605127
  48.8572075  67.6377287  45.4017107  49.3806477  67.8839584  46.1643416
  48.6384409  68.4697322  44.9820244  44.2539356  69.9080962  33.2688232
  43.9252063  69.0278341  33.0863338  44.6078727  69.8528630  34.1564621
  53.5018935  81.5435864  37.7783217  53.3543898  80.6152572  37.9590787
  54.3272429  81.5655955  37.2940293  47.3681180  70.1953931  33.6363710
  47.7077252  70.7239853  32.9142318  47.8153300  70.5334338  34.4122276
  57.1053057  82.3664423  38.8648090  58.0299605  82.1607284  38.7272541
  56.9368361  82.1180824  39.7737432  50.0624620  68.5790982  43.0866778
  49.7221441  67.7798795  43.4887458  49.3563627  68.8792693  42.5143611
  50.7141092  65.6640295  41.5394101  51.5367162  65.1900773  41.4172991
  50.9579156  66.4430778  42.0392787  49.3549327  68.6928553  31.8357002
  50.0757689  69.0709806  31.3320719  48.7314631  69.4117430  31.9391980
  53.4980450  69.3973702  32.7715335  53.7144064  70.2798340  32.4704163
  53.0174517  69.0059915  32.0420977  48.2379671  72.3559415  39.3486079
  48.0924252  72.6699718  40.2410361  47.7604875  72.9744316  38.7956978
  50.0976054  69.3461963  39.3966969  50.0837623  68.4503057  39.0599267
  50.8148482  69.3532627  40.0305255  51.9502185  69.7799303  41.4420096
  51.6919962  70.7016374  41.4404427  51.4187225  69.3829738  42.1320560
  56.8948373  82.8850091  34.2210182  57.0685251  82.3196513  33.4684034
  57.3877265  83.6850985  34.0389672  49.5012950  68.2276343  34.6654539
  49.6228861  67.2992990  34.8645426  49.2114992  68.2415029  33.7532854
  52.3704140  65.9131254  37.8021259  52.3925837  65.9770587  36.8473238
  52.7872199  65.0735763  37.9961765  62.7487765  75.6486513  35.8400481
  63.1918911  74.8993839  35.4419605  61.8714275  75.6396650  35.4574213
  57.8823546  82.2016855  31.3207080  58.5774451  82.8223548  31.5394395
  58.2246696  81.3512206  31.5959458  59.7814969  79.6516560  32.8494411
  60.3066293  79.9903833  32.1243731  59.6937322  78.7163576  32.6657545
  51.4435018  83.5650634  44.9784287  51.7522144  83.3199781  45.8506987
  52.2410500  83.7697273  44.4903158  51.4655630  85.7188544  37.2089664
  51.0260620  85.2264922  37.9022521  52.2163747  85.1761511  36.9681739
  43.9447969  81.9100085  37.2114292  44.7705989  81.6103856  36.8312935
  43.5942021  81.1407707  37.6604081  48.9129502  81.2626553  39.2811966
  48.2909511  80.5997258  38.9814193  49.5834369  81.2887685  38.5985613
  48.9854029  69.7408341  48.8744472  49.0342185  70.6170464  48.4922241
  49.5276544  69.1985734  48.3016115  59.4708875  80.2849464  48.1545609
  58.6804419  80.2673603  47.6150108  59.2342230  80.8237758  48.9094645
  59.5906750  77.1341930  45.4678337  59.6404755  76.9691938  46.4093860
  59.4820673  76.2669190  45.0776218  48.4743009  79.8130476  32.7570426
  48.6231129  80.4965941  32.1037099  49.2809452  79.7935566  33.2719882
  56.8810513  73.1172859  46.7837644  57.7820375  72.9779323  46.4921642
  56.9558487  73.2827313  47.7235821  51.2153318  70.4939713  45.6290830
  50.3456627  70.7873279  45.3573419  51.4512798  71.0780158  46.3498094
  61.0924947  79.5538872  45.7120359  60.8009755  79.9168853  46.5483820
  60.4797078  78.8405880  45.5333691  62.2920629  77.1191752  38.2322929
  63.1267521  77.5581556  38.3960489  62.4279758  76.6430405  37.4131175
  59.3412135  74.6771487  44.1800417  59.8166257  74.8699133  43.3719268
  58.4177701  74.7330672  43.9343800  46.2295642  75.8395654  33.7631495
  45.9841684  74.9357984  33.9611705  46.3991556  75.8412804  32.8210973
  53.9192352  66.7119330  43.1456251  54.4374296  67.4480357  42.8202739
  53.5647484  67.0183323  43.9803010  45.4991289  71.5724011  31.2617656
  44.8060534  71.6468366  30.6057692  45.2543041  70.8084355  31.7839173
  54.1704946  63.1319613  38.6657147  54.4506700  62.4642802  39.2917574
  54.9555553  63.3248708  38.1531811  51.9738414  82.3078607  30.2282174
  51.4012381  82.9268794  29.7752645  52.5471208  82.8577968  30.7622095
  58.0413804  71.5537247  42.4128722  58.9931227  71.6535344  42.4340946
  57.8717255  70.7615515  42.9226807  56.0628184  68.6392830  42.5988123
  55.4678116  68.9197843  41.9034612  55.7777880  69.1286731  43.3704864
  55.1935674  82.5915757  31.3590756  56.1266347  82.5261318  31.5623631
  55.1058887  83.4272024  30.9005288  57.8223691  81.9081627  28.3194703
  57.7437322  81.5741491  29.2130461  58.6433358  82.4003395  28.3186176
  60.5201882  74.7743366  41.5271022  60.4878202  73.8359367  41.7130706
  61.1302506  74.8527403  40.7936847  52.3585213  73.6439419  27.5698226
  53.3044318  73.5145627  27.6386644  51.9799458  72.9054081  28.0467654
  60.6696370  71.5654410  41.5729305  60.1535419  70.7812866  41.3859234
  61.5536319  71.2373126  41.7375825  58.3307097  65.3095425  37.5325118
  58.1331919  65.0010514  38.4168450  58.9406803  66.0357064  37.6623048
  66.3378432  75.8359373  40.6677059  67.0681820  75.5744661  41.2284762
  65.7285377  75.0988095  40.7079127  64.4193729  73.9767236  41.2651510
  63.6926893  73.8423201  40.6568002  64.0041016  74.2844064  42.0708228
  52.2423905  77.6957166  49.0298883  53.1626915  77.8735765  49.2238930
  52.2073488  76.7513211  48.8778582  50.5428130  71.5689396  27.5053111
  49.6359585  71.2722508  27.5815825  50.8204111  71.2719214  26.6387397
  52.1590196  66.1126285  33.6597353  51.3490924  65.7673370  34.0352599
  52.8474613  65.8033829  34.2484964  54.0880744  65.1904332  35.2821649
  54.6411783  65.6099786  35.9411672  54.3250830  64.2640080  35.3244605
  50.1113843  71.1791406  51.0624413  50.0110570  72.1285763  50.9936504
  49.8935385  70.8509645  50.1900483  49.3126915  68.4276331  27.6465090
  50.1746079  68.7531229  27.9060908  49.4977259  67.6407827  27.1338156
  57.4659551  67.3004857  34.7900313  56.8858220  67.9589661  34.4078366
  57.1995484  66.4782202  34.3787731  55.9163117  66.7009915  36.9921634
  56.4162896  66.8126450  36.1835953  56.5598725  66.3970968  37.6322442
  49.9745113  74.6088545  49.8789475  49.4912195  75.4088905  50.0853364
  50.0606052  74.6196490  48.9256919  43.2431073  76.4416924  37.8011294
  43.2201761  76.5404612  36.8493177  43.5531709  77.2882075  38.1228460
  45.9018451  78.4993079  41.9157909  46.8561704  78.4677022  41.8487840
  45.7030974  78.0383703  42.7308134  56.2484429  69.4604948  33.8456662
  55.3610284  69.7454598  33.6276856  56.6638418  69.2998711  32.9983939
  59.5998965  69.4851469  37.5611001  60.3759355  69.9747921  37.8335618
  58.8747099  69.9109523  38.0182870  62.0371524  70.1979088  38.6184942
  62.6316015  69.9574824  37.9078250  62.1098108  69.4786219  39.2458478
  44.2568680  84.0412699  38.9328106  44.1223148  83.2813100  38.3666104
  43.8400742  84.7653599  38.4656895  55.3927643  79.2249623  27.9404682
  56.0963493  79.4299625  28.5562337  54.6690291  79.7926384  28.2053765
  56.2225453  74.9759484  34.0606952  56.1660654  75.4328035  33.2214584
  56.7753795  74.2150168  33.8829795  60.0330259  70.7649216  34.8857071
  59.7767193  70.3645851  35.7165279  59.4083127  71.4793010  34.7607211
  64.3442597  73.5045289  37.3928363  63.7842155  73.5738478  38.1659925
  63.7386100  73.3286274  36.6727859  47.4137805  84.9382016  39.1446549
  47.2970190  85.8827448  39.0425239  46.5930252  84.6355578  39.5332348
  57.3014340  79.6632152  29.9903142  58.1359944  79.2313350  29.8080617
  57.1398683  79.4914165  30.9180036  56.9560232  76.1664265  31.3559481
  56.9009036  76.0008536  30.4147925  56.3306287  76.8740298  31.5121671
  54.2706139  78.4713177  50.6813044  55.1397299  78.6453829  50.3199679
  53.7912891  79.2907594  50.5588773  50.2656358  65.6672374  30.9344799
  50.2535027  66.6114214  31.0913070  51.1579779  65.4842519  30.6404261
  48.4392320  85.5910278  42.3602477  49.3419566  85.6233888  42.6768972
  48.2129690  84.6610729  42.3748813  50.1945922  84.3441264  39.0212556
  49.2441553  84.3443126  38.9076928  50.4978408  83.5973999  38.5048591
  54.0808477  62.2615151  35.1890736  53.3140873  61.7073637  35.3347419
  54.4919182  62.3337019  36.0504888  65.9298615  90.1801803  40.0858318
  66.5677025  90.0608550  39.3821659  65.8119458  91.1282647  40.1446271
  62.7388321  90.1329231  40.0219843  62.4006833  90.0170296  39.1340378
  63.6078090  89.7320396  40.0020849  58.5975137  91.9864707  36.0116734
  58.0340002  91.8954644  35.2433022  58.4827532  91.1664612  36.4919227
  63.2208104  91.2864083  45.9806049  63.2096745  90.8916881  45.1086552
  63.3828744  90.5530155  46.5739820  56.1439569  93.4815899  38.8500955
  56.9360861  93.1406724  38.4347254  56.3836219  93.5910874  39.7703108
  64.1774696  95.6535675  31.3231199  63.5262676  96.2389755  30.9365213
  64.9719059  96.1841870  31.3826236  58.1030323  92.7424812  31.7218333
  58.8761199  92.1953799  31.5831209  58.4555722  93.6069062  31.9332795
  59.9415365  94.0701194  44.9285233  59.6505231  94.9746825  44.8131899
  60.5772350  94.1117722  45.6429302  60.8671572  91.4478043  41.5186592
  61.4635145  91.2234065  40.8043555  60.9246544  90.7062788  42.1212040
  60.4396601  88.9017478  29.3536783  60.6922121  88.3799000  28.5920246
  59.5021160  88.7383624  29.4563467  65.4839884  87.9053257  37.1611527
  66.2702973  87.4872680  36.8101944  65.7478588  88.8099349  37.3293175
  65.6549961  93.3426107  31.8600183  65.0195794  93.4160733  32.5721088
  65.3247367  93.9319706  31.1819263  70.8848311  87.8428490  38.0644505
  71.6173483  87.2727707  38.2982335  70.1287666  87.4550090  38.5051011
  60.1592889  90.8045584  31.5561158  60.0429148  90.1290488  32.2242243
  60.2695149  90.3177958  30.7393311  62.5024430  90.2655731  35.2607847
  62.1382638  89.7386352  35.9720769  63.3591546  89.8754200  35.0874333
  68.4073731  81.5550064  42.5239114  68.0757056  82.4245475  42.3000329
  67.8119344  81.2386348  43.2033144  62.1429917  85.2945631  30.2569196
  62.3104320  86.1625867  30.6239667  61.9527086  85.4572913  29.3330485
  64.9005251  93.7562610  41.9235026  64.6005974  94.6587649  41.8150834
  64.5556310  93.4894793  42.7756179  58.3517732  90.2076407  37.9571731
  57.4268229  90.0752621  38.1649423  58.6002145  90.9870626  38.4541673
  68.3002394  86.2745150  39.6032464  67.3919272  86.2060559  39.3091225
  68.2489990  86.7517095  40.4314289  62.1219138  87.7503289  31.2415863
  62.0018763  88.1960339  32.0801343  61.4271727  88.0988606  30.6829401
  55.7126543  89.8509680  38.7915520  55.8418924  90.1044159  39.7054932
  55.0323994  90.4437388  38.4720175  59.8826030 100.5206930  34.8905994
  59.8050060 101.4714755  34.9694475  59.2787674 100.1752803  35.5480920
  62.3743260  87.6934796  47.5467361  61.5976594  88.2528716  47.5370226
  63.0133823  88.1791579  48.0682231  70.1664041  84.4761589  41.3810338
  69.5238421  84.7694122  40.7350132  69.6618969  84.3614509  42.1863534
  67.8204204  88.2224762  32.0696197  68.7322061  88.4552148  31.8943894
  67.3113851  88.8061806  31.5071275  60.6289632  90.5020249  47.1085328
  61.3704317  91.0405293  46.8320152  59.9226618  91.1286538  47.2656880
  66.1044972  92.6449390  45.7057489  66.5128328  92.2031800  44.9612122
  65.3822234  92.0702017  45.9591682  62.4576042  87.5821996  43.0791046
  63.3037237  88.0061410  43.2225695  62.3974680  86.9255621  43.7729610
  66.4273787  93.2050580  39.4609778  65.7982649  93.3696294  38.7585846
  66.0399449  93.6192190  40.2320742  70.3063019  94.1405018  36.8154142
  69.6214057  94.5203919  36.2651175  70.3906868  94.7500345  37.5486090
  65.6075487  85.2426365  44.7372220  65.3636419  85.9968425  44.2006496
  65.8835418  85.6211712  45.5719467  67.5613950  91.7864977  43.4149486
  67.7730845  92.4296737  42.7383867  67.5143698  90.9527294  42.9471416
  65.1640179  84.3982798  40.3186058  64.3024658  84.6964051  40.6102795
  65.1902614  84.6153197  39.3867090  61.9801749  92.9424988  36.7259863
  62.4440094  93.2212691  35.9364486  61.7158547  92.0408433  36.5432954
  58.8725830  92.4896470  39.6639627  59.4427187  92.9183738  39.0257111
  59.4633942  92.2079055  40.3623812  60.9170635  89.0648141  33.5349429
  61.6194678  89.5169184  34.0023355  60.5851263  88.4231960  34.1629322
  59.3650996  87.6559897  47.9100638  58.7349657  88.3376178  48.1436035
  59.2587084  87.5442979  46.9653776  54.6595969  87.3231693  38.8366562
  53.8695023  87.5789222  38.3606673  55.1507216  88.1380031  38.9418603
  68.6759778  94.6636932  41.5871843  69.4977222  94.2617120  41.3054525
  68.6722181  94.5605167  42.5387959  56.6110714  87.6876273  35.7950039
  55.8141877  87.7994967  36.3133535  56.3836306  88.0262925  34.9290929
  62.4416382  94.2120976  43.7432553  62.5060814  94.6741383  44.5790725
  61.7327306  93.5818341  43.8714863  52.9433672  87.5762184  41.2681553
  53.1941710  88.4609194  41.5339129  53.4793220  87.3966785  40.4956645
  76.7665771  91.0075681  37.9356814  76.0129480  90.4383079  37.7800819
  76.9013312  90.9738345  38.8827449  62.1564399  95.8789083  33.6111534
  62.0210074  96.7240619  34.0396382  62.6974212  96.0808361  32.8477468
  58.6431739  81.9580663  50.2725889  58.2498684  81.4046862  50.9473533
  59.4597879  82.2691242  50.6632407  55.6093797  93.3964521  34.1839459
  56.1218317  94.1907772  34.3345024  56.2616510  92.6990812  34.1173060
  57.4188681  96.5130278  36.2662212  57.5955310  97.4348242  36.0783196
  58.2145515  96.1988697  36.6956592  61.5599700  83.3738542  47.8646146
  62.3009413  83.9745695  47.7850608  61.7917623  82.6316180  47.3064188
  56.7041038  88.5594909  46.1424375  56.5894553  87.6580167  46.4431474
  55.8485556  88.8058606  45.7909192  63.7832876  96.5012650  47.7411876
  63.3396730  95.7149028  47.4232780  64.4450089  96.6891800  47.0755767
  58.5419997  98.0308451  42.2672554  59.0927422  97.9025515  41.4949548
  57.7031473  98.3303340  41.9167447  65.8814114  96.7815450  45.7693277
  65.8632589  97.6024331  45.2773546  66.8034034  96.6569525  45.9943418
  62.3387168  94.2959579  46.6116785  62.8715505  93.5347867  46.3816093
  61.8101249  94.0033231  47.3540940  65.5056863  79.4019645  42.1410427
  65.1621132  80.2921287  42.0649538  65.8735825  79.2121303  41.2780012
  53.5742713  91.7253176  34.9599029  54.4117935  92.1350184  34.7432737
  53.7520981  90.7852618  34.9299223  65.4707146  89.3928256  30.6482862
  64.9553769  90.1632861  30.8871250  65.1984454  88.7193392  31.2715924
  63.0554257  84.2377957  35.7068101  62.1995853  83.8484807  35.5273739
  63.4681208  84.3169918  34.8467886  64.5853403  81.7724300  40.1059660
  64.0818199  81.7354435  39.2927466  64.8784010  82.6817043  40.1656317
  60.8296289  81.8563030  39.1125842  61.6949286  81.6605839  38.7531732
  60.8973798  81.6273382  40.0395199  70.4441420  92.1460611  32.5836036
  69.6670862  91.8071770  32.1391198  71.1232901  92.1513234  31.9091001
  65.2593449  87.2655348  32.4742644  64.9543584  87.5801498  33.3252787
  66.2123891  87.3436768  32.5169977  63.7039881  93.4245572  34.1235598
  63.1761242  92.6898331  33.8108835  63.2027383  94.2020248  33.8775566
  68.6832727  91.6194592  39.2402644  68.0256401  92.3093854  39.3282772
  69.4873126  92.0091024  39.5836630  58.4358608  84.0865238  36.4842209
  59.0102360  83.8640419  35.7515402  59.0229591  84.1553932  37.2370810
  67.4938185  89.9738965  37.2906586  68.0070067  90.6068957  37.7928295
  68.1439409  89.3740160  36.9249946  58.7628195  86.1169699  30.5038094
  57.9265508  86.4544386  30.8247369  58.6232965  85.9818679  29.5665231
  60.7381276  80.9606487  35.2117278  60.0845688  80.6455504  34.5873893
  60.6961750  80.3382227  35.9377101  61.8492481  91.2425782  27.1270571
  60.9419543  91.0115035  27.3261720  62.3463513  90.4463401  27.3144552
  64.7560560  99.9523289  30.0467257  64.0822258 100.2554986  30.6552215
  65.1426382 100.7552369  29.6972714  63.9719016  87.4488420  39.5364926
  63.0541578  87.6703367  39.3786614  64.3879160  87.5234731  38.6776633
  64.7554064  88.8479836  34.6667606  65.5025883  89.3601233  34.3574728
  65.0245654  88.5263889  35.5272000  63.0280714  91.3438377  31.6494561
  62.1191933  91.0597410  31.7467030  63.0575798  91.7637455  30.7897867
  68.2599982  94.9544966  35.4185728  67.8062309  94.1135876  35.4750919
  67.6293948  95.5906365  35.7560508  67.2032901  85.8836952  36.6486396
  66.4655658  85.3714339  36.9796638  67.4559675  85.4437334  35.8369673
  66.7032921  96.7921463  36.3535546  66.9955895  97.3526520  35.6347912
  67.2131541  97.0850024  37.1088705  67.3044529  78.6613204  37.2428165
  67.6103405  77.8010568  36.9554080  68.0297133  79.2530825  37.0427159
  53.5968885  89.0643891  35.6309763  53.3993284  88.4713252  34.9060829
  53.0415549  88.7596101  36.3485702  61.5765608  88.9566997  37.7504356
  61.6314218  88.0040834  37.6746833  60.7656810  89.1126436  38.2345654
  62.7256802  92.8847120  28.9882639  62.2876232  92.1682979  28.5288277
  63.4667243  93.1123235  28.4267731  59.5157968  87.5744057  35.5094735
  58.7025834  87.8738228  35.9159927  60.0116962  87.1799746  36.2269217
  61.6666546  97.5701814  37.4429000  61.6242725  97.7962660  36.5137532
  62.5829245  97.3365189  37.5914801  65.1132180  88.0385882  44.3409629
  65.4681568  88.2657355  45.2004095  65.7604311  88.3704258  43.7186884
  70.8429917  91.1604318  35.0458958  70.7047815  91.3505913  34.1180147
  70.4866136  91.9223700  35.5027009  59.0072043  85.1462413  41.1255970
  59.6471422  85.0051172  40.4278933  58.1749573  84.8596926  40.7494572
  70.8699296  93.2280845  40.0570229  71.3035803  93.1356134  40.9053283
  71.5830877  93.2038345  39.4190245  59.7832347  94.4464843  37.2390962
  60.5772945  93.9515163  37.0373537  59.0724039  93.9182706  36.8758668
  64.6027191  96.8282939  41.5903330  64.6564214  97.3973875  42.3581046
  63.7341973  96.9984824  41.2257367  56.0915110  88.5907925  33.3150715
  55.1612698  88.5292380  33.5320677  56.1872582  88.0683878  32.5187356
  56.0100659  85.1162738  35.9028957  56.2707477  86.0308071  35.7938117
  56.8317832  84.6487180  36.0525569  57.4825585  86.5300495  43.0727781
  58.1548638  86.3217857  42.4240430  56.6555371  86.3322581  42.6333013
  71.7314846  93.2704545  42.5903115  71.9250736  94.1750356  42.8362390
  71.6315464  92.8111964  43.4241700  63.3851157  83.1562436  45.0893442
  62.7379072  83.8552385  44.9957918  64.1552172  83.5898580  45.4569690
  66.7929955  93.4211288  48.1643995  66.6415461  93.1921840  47.2474079
  66.7834634  94.3781889  48.1775340  63.5615291  90.9943201  43.1490262
  64.4907351  91.1454360  42.9759229  63.1406321  91.0827221  42.2938908
  62.3603623  95.0193865  40.9188799  62.2214709  94.6512649  41.7914737
  61.5718219  95.5341505  40.7472757  62.9551775 100.1202962  32.2614336
  63.1303530  99.6491005  33.0759959  62.2684563 100.7468728  32.4895597
  63.9108838  94.3975468  38.3077637  63.5758671  94.3576238  39.2035287
  63.4112784  93.7320184  37.8348047  57.8853082  89.8043098  43.8330218
  57.7472880  89.0723337  44.4341757  58.7958005  89.7151998  43.5514406
  66.8468030  91.7431502  28.5814697  66.2297200  91.0178330  28.4847749
  66.3784518  92.5040862  28.2381771  60.5135383  89.5163057  43.3213898
  61.2235001  88.8756249  43.2800516  60.4704691  89.7675952  44.2440079
  68.5022161  96.4530410  46.2420477  68.4434707  95.7689631  45.5751060
  68.9041680  97.1949400  45.7901103  59.2264317  86.5028275  45.1409537
  58.6901674  86.0519013  45.7931134  58.6381025  86.6374184  44.3980002
  57.5212860 103.2692324  39.0354196  57.7609458 103.9010848  39.7133215
  56.6782057 102.9180364  39.3219555  58.6366576  85.9616926  27.7036001
  57.7596042  85.8405727  27.3398248  59.1124329  85.1703005  27.4514890
  68.5039569  94.4169994  44.4734457  67.6166347  94.0795916  44.5960856
  69.0738120  93.6853026  44.7103222  50.1568716  90.7494086  37.7977508
  50.8439756  90.4355816  37.2098524  50.0016844  91.6535451  37.5244760
  54.9603438  85.6384283  42.2262532  54.8761627  85.0309952  41.4912942
  54.1386144  86.1293301  42.2272028  62.0340722  99.0771447  41.4395700
  61.9610893  99.8826418  41.9515005  61.5918115  99.2763413  40.6143721
  61.8230502  98.3143217  34.9498522  61.0398023  98.8564897  35.0436746
  62.5223247  98.8317196  35.3492763  65.1327152  84.1237846  37.5932727
  65.6295851  83.3707809  37.2733797  64.3614133  84.1602163  37.0275936
  72.9856909  89.8278212  39.2351018  72.9746785  90.7102927  38.8644952
  72.1174289  89.4749763  39.0405556  64.4939405  98.9758281  43.5953859
  65.2067378  99.6105746  43.5229760  64.0029434  99.0722147  42.7793861
  66.2156932  92.8809533  35.1671150  65.2813211  93.0010996  34.9975855
  66.3933601  91.9782000  34.9031160  61.7162120  86.2655229  37.3204412
  61.3459908  85.7126270  38.0085317  62.2121213  85.6613363  36.7679412
  69.6029484  88.7226853  35.7021185  70.0689936  89.5554844  35.6281487
  70.0536984  88.2571834  36.4066443  59.5451319  96.7252724  44.4159430
  60.2460779  97.3589207  44.5688824  59.0746434  97.0667456  43.6555069
  67.6705715  95.0670674  32.7007337  67.9465559  94.9527269  33.6101211
  66.8010214  94.6688159  32.6619510  67.5746146  81.0907440  39.7412086
  66.6609226  81.3211667  39.9094293  68.0039248  81.1745884  40.5926118
  67.3452605  89.2797332  42.2411980  66.6924055  89.5273239  41.5864433
  67.7232985  88.4661470  41.9074457  64.3059779  99.3157025  36.3440150
  64.4882173  98.4978681  36.8067903  65.1292765  99.5324717  35.9065040
  64.6401944  98.2425210  33.6055199  65.1689711  97.7317665  32.9925361
  64.9030164  97.9267740  34.4700732  63.3940178  90.0217143  48.7278017
  62.7180815  89.9211272  49.3980392  64.2167812  89.8656356  49.1914014
  55.1419037  96.2589079  41.3490532  55.7272474  95.5132767  41.4818436
  54.9443876  96.5693036  42.2327196  57.9957692  99.2940327  36.3652975
  57.3268068  99.7786454  35.8817015  57.8570562  99.5409547  37.2796353
  49.7336692  88.8294680  40.0694975  49.7720791  88.2958270  40.8632093
  49.2276985  88.3029885  39.4505953  62.1362961 101.3284070  42.9635633
  62.6881269 101.4915692  43.7284718  62.4769154 101.9188508  42.2915658
  57.1127454  83.6759220  43.5657518  57.1768781  84.5374051  43.1534915
  57.0494574  83.0633222  42.8329876  56.5879727  85.7482353  47.2130552
  57.2151765  85.3659430  47.8268076  55.7307645  85.5296554  47.5786244
  66.9873835  96.1545328  48.8184287  67.5313739  96.7675286  48.3239242
  66.4060680  96.7124906  49.3351300  53.3645269  87.5558782  33.1448907
  53.6598710  86.6469460  33.0915960  52.4633305  87.5346521  32.8229909
  65.2731348  99.2766046  39.9499315  65.1482488  98.4755786  39.4410261
  65.9310439  99.7712239  39.4613285  56.8939516  85.6314778  39.1276455
  56.1726102  86.2450746  38.9883929  57.6832772  86.1672543  39.0493101
  67.3366257  97.0775066  41.5778865  66.3896592  96.9580417  41.5057192
  67.6849030  96.1897564  41.6605127  59.6965830  82.9669205  45.4017107
  60.2200232  83.2131501  46.1643416  59.4778163  83.7989240  44.9820244
  55.0933111  85.2372879  33.2688232  54.7645817  84.3570258  33.0863338
  55.4472482  85.1820548  34.1564621  64.3412690  96.8727782  37.7783217
  64.1937652  95.9444489  37.9590787  65.1666183  96.8947873  37.2940293
  58.2074934  85.5245849  33.6363710  58.5471007  86.0531770  32.9142318
  58.6547055  85.8626255  34.4122276  67.9446812  97.6956341  38.8648090
  68.8693359  97.4899202  38.7272541  67.7762115  97.4472742  39.7737432
  60.9018375  83.9082900  43.0866778  60.5615195  83.1090713  43.4887458
  60.1957381  84.2084611  42.5143611  61.5534847  80.9932212  41.5394101
  62.3760916  80.5192690  41.4172991  61.7972910  81.7722696  42.0392787
  60.1943081  84.0220471  31.8357002  60.9151444  84.4001723  31.3320719
  59.5708385  84.7409348  31.9391980  64.3374204  84.7265620  32.7715335
  64.5537819  85.6090258  32.4704163  63.8568271  84.3351833  32.0420977
  59.0773426  87.6851333  39.3486079  58.9318006  87.9991636  40.2410361
  58.5998629  88.3036233  38.7956978  60.9369808  84.6753881  39.3966969
  60.9231377  83.7794974  39.0599267  61.6542237  84.6824545  40.0305255
  62.7895939  85.1091221  41.4420096  62.5313717  86.0308292  41.4404427
  62.2580980  84.7121656  42.1320560  67.7342128  98.2142008  34.2210182
  67.9079005  97.6488431  33.4684034  68.2271019  99.0142903  34.0389672
  53.5519088  90.2256677  42.2873740  53.0072556  91.0016485  42.4194015
  54.4298438  90.5727482  42.1292862  60.3406704  83.5568261  34.6654539
  60.4622616  82.6284907  34.8645426  60.0508747  83.5706947  33.7532854
  63.2097895  81.2423172  37.8021259  63.2319592  81.3062505  36.8473238
  63.6265954  80.4027680  37.9961765  73.5881519  90.9778431  35.8400481
  74.0312665  90.2285756  35.4419605  72.7108029  90.9688568  35.4574213
  68.7217300  97.5308773  31.3207080  69.4168205  98.1515465  31.5394395
  69.0640451  96.6804124  31.5959458  54.3385110  89.3526574  45.1803897
  53.5966846  89.5009209  45.7668528  54.0177854  89.6134839  44.3170647
  70.6208724  94.9808478  32.8494411  71.1460048  95.3195751  32.1243731
  70.5331076  94.0455493  32.6657545  62.2828772  98.8942552  44.9784287
  62.5915899  98.6491699  45.8506987  63.0804254  99.0989190  44.4903158
  62.3049384 101.0480461  37.2089664  61.8654375 100.5556840  37.9022521
  63.0557501 100.5053429  36.9681739  54.7841723  97.2392002  37.2114292
  55.6099743  96.9395774  36.8312935  54.4335775  96.4699625  37.6604081
  59.7523256  96.5918471  39.2811966  59.1303266  95.9289176  38.9814193
  60.4228123  96.6179602  38.5985613  52.9850328  95.1578329  38.1703226
  52.1482237  94.7300503  37.9887227  52.9573974  95.3510772  39.1074017
  59.8247784  85.0700259  48.8744472  59.8735939  85.9462381  48.4922241
  60.3670298  84.5277652  48.3016115  70.3102630  95.6141382  48.1545609
  69.5198173  95.5965521  47.6150108  70.0735984  96.1529675  48.9094645
  70.4300505  92.4633848  45.4678337  70.4798510  92.2983856  46.4093860
  70.3214428  91.5961107  45.0776218  59.3136763  95.1422394  32.7570426
  59.4624884  95.8257858  32.1037099  60.1203207  95.1227484  33.2719882
  67.7204267  88.4464776  46.7837644  68.6214130  88.3071241  46.4921642
  67.7952242  88.6119231  47.7235821  62.0547072  85.8231631  45.6290830
  61.1850382  86.1165197  45.3573419  62.2906553  86.4072076  46.3498094
  71.9318701  94.8830790  45.7120359  71.6403510  95.2460770  46.5483820
  71.3190833  94.1697798  45.5333691  73.1314384  92.4483669  38.2322929
  73.9661275  92.8873474  38.3960489  73.2673513  91.9722323  37.4131175
  70.1805890  90.0063404  44.1800417  70.6560011  90.1991051  43.3719268
  69.2571455  90.0622590  43.9343800  57.0689396  91.1687571  33.7631495
  56.8235438  90.2649901  33.9611705  57.2385311  91.1704722  32.8210973
  64.7586106  82.0411248  43.1456251  65.2768050  82.7772275  42.8202739
  64.4041239  82.3475241  43.9803010  56.3385044  86.9015929  31.2617656
  55.6454289  86.9760284  30.6057692  56.0936796  86.1376273  31.7839173
  65.0098700  78.4611530  38.6657147  65.2900454  77.7934719  39.2917574
  65.7949307  78.6540626  38.1531811  62.8132169  97.6370524  30.2282174
  62.2406136  98.2560711  29.7752645  63.3864963  98.1869886  30.7622095
  68.8807559  86.8829164  42.4128722  69.8324982  86.9827262  42.4340946
  68.7111009  86.0907433  42.9226807  66.9021938  83.9684748  42.5988123
  66.3071870  84.2489760  41.9034612  66.6171635  84.4578649  43.3704864
  66.0329429  97.9207674  31.3590756  66.9660102  97.8553236  31.5623631
  65.9452641  98.7563941  30.9005288  68.6617445  97.2373545  28.3194703
  68.5831077  96.9033408  29.2130461  69.4827112  97.7295313  28.3186176
  71.3595636  90.1035284  41.5271022  71.3271957  89.1651285  41.7130706
  71.9696260  90.1819321  40.7936847  63.1978967  88.9731337  27.5698226
  64.1438072  88.8437545  27.6386644  62.8193212  88.2345999  28.0467654
  71.5090125  86.8946328  41.5729305  70.9929174  86.1104784  41.3859234
  72.3930073  86.5665044  41.7375825  69.1700852  80.6387343  37.5325118
  68.9725673  80.3302431  38.4168450  69.7800557  81.3648982  37.6623048
  77.1772186  91.1651291  40.6677059  77.9075575  90.9036579  41.2284762
  76.5679132  90.4280013  40.7079127  75.2587483  89.3059154  41.2651510
  74.5320647  89.1715118  40.6568002  74.8434770  89.6135982  42.0708228
  63.0817660  93.0249083  49.0298883  64.0020669  93.2027682  49.2238930
  63.0467243  92.0805129  48.8778582  61.3821884  86.8981313  27.5053111
  60.4753340  86.6014426  27.5815825  61.6597865  86.6011132  26.6387397
  52.2999825  88.2187677  37.9552158  51.9802609  87.3652985  37.6626532
  51.7533253  88.4336255  38.7110125  56.0779732  90.9350118  41.6721664
  56.2965742  91.8667226  41.6909698  56.4905506  90.5758092  42.4576468
  62.9983950  81.4418203  33.6597353  62.1884679  81.0965288  34.0352599
  63.6868367  81.1325747  34.2484964  64.9274498  80.5196250  35.2821649
  65.4805537  80.9391703  35.9411672  65.1644585  79.5931998  35.3244605
  60.9507598  86.5083324  51.0624413  60.8504325  87.4577681  50.9936504
  60.7329140  86.1801563  50.1900483  60.1520669  83.7568249  27.6465090
  61.0139833  84.0823147  27.9060908  60.3371013  82.9699745  27.1338156
  52.1688085  91.8390588  39.9245279  51.4751556  91.4244541  39.4115234
  52.9161076  91.8811125  39.3278698  68.3053306  82.6296775  34.7900313
  67.7251975  83.2881579  34.4078366  68.0389238  81.8074120  34.3787731
  66.7556872  82.0301833  36.9921634  67.2556650  82.1418367  36.1835953
  67.3992480  81.7262886  37.6322442  60.8138868  89.9380462  49.8789475
  60.3305949  90.7380823  50.0853364  60.8999807  89.9488407  48.9256919
  54.0824827  91.7708842  37.8011294  54.0595516  91.8696529  36.8493177
  54.3925464  92.6173993  38.1228460  56.7412205  93.8284997  41.9157909
  57.6955459  93.7968939  41.8487840  56.5424729  93.3675621  42.7308134
  57.3311587  92.3986113  44.4828706  58.1504476  92.8930192  44.5063543
  57.6048395  91.4818081  44.4546274  67.0878184  84.7896866  33.8456662
  66.2004039  85.0746516  33.6276856  67.5032173  84.6290629  32.9983939
  70.4392720  84.8143386  37.5611001  71.2153110  85.3039839  37.8335618
  69.7140854  85.2401441  38.0182870  72.8765278  85.5271006  38.6184942
  73.4709769  85.2866742  37.9078250  72.9491862  84.8078136  39.2458478
  55.0962434  99.3704617  38.9328106  54.9616902  98.6105018  38.3666104
  54.6794496 100.0945517  38.4656895  66.2321397  94.5541540  27.9404682
  66.9357247  94.7591543  28.5562337  65.5084046  95.1218302  28.2053765
  67.0619207  90.3051401  34.0606952  67.0054409  90.7619953  33.2214584
  67.6147550  89.5442086  33.8829795  70.8724013  86.0941133  34.8857071
  70.6160947  85.6937769  35.7165279  70.2476881  86.8084927  34.7607211
  75.1836351  88.8337207  37.3928363  74.6235909  88.9030396  38.1659925
  74.5779854  88.6578191  36.6727859  58.2531560 100.2673934  39.1446549
  58.1363944 101.2119366  39.0425239  57.4324006  99.9647495  39.5332348
  68.1408094  94.9924069  29.9903142  68.9753698  94.5605268  29.8080617
  67.9792437  94.8206083  30.9180036  67.7953987  91.4956183  31.3559481
  67.7402790  91.3300454  30.4147925  67.1700042  92.2032216  31.5121671
  52.5846502  86.7324247  45.1820903  53.2305365  86.2223201  45.6708128
  52.3763653  87.4692929  45.7564328  65.1099894  93.8005095  50.6813044
  65.9791053  93.9745747  50.3199679  64.6306645  94.6199511  50.5588773
  61.1050112  80.9964292  30.9344799  61.0928782  81.9406132  31.0913070
  61.9973534  80.8134437  30.6404261  59.2786074 100.9202196  42.3602477
  60.1813321 100.9525806  42.6768972  59.0523444  99.9902647  42.3748813
  61.0339676  99.6733182  39.0212556  60.0835307  99.6735044  38.9076928
  61.3372162  98.9265917  38.5048591  64.9202232  77.5907068  35.1890736
  64.1534627  77.0365555  35.3347419  65.3312937  77.6628937  36.0504888
  56.9243993  83.8791864  49.2795917  57.7875454  83.5228669  49.4899242
  56.3509403  83.5405759  49.9671322  76.7692370 105.5093720  40.0858318
  77.4070780 105.3900468  39.3821659  76.6513212 106.4574564  40.1446271
  73.5782076 105.4621149  40.0219843  73.2400587 105.3462213  39.1340378
  74.4471844 105.0612314  40.0020849  69.4368892 107.3156625  36.0116734
  68.8733757 107.2246562  35.2433022  69.3221287 106.4956529  36.4919227
  74.0601859 106.6156000  45.9806049  74.0490500 106.2208799  45.1086552
  74.2222498 105.8822073  46.5739820  66.9833323 108.8107817  38.8500955
  67.7754615 108.4698641  38.4347254  67.2229974 108.9202792  39.7703108
  68.9424077 108.0716730  31.7218333  69.7154953 107.5245717  31.5831209
  69.2949476 108.9360979  31.9332795  70.7809120 109.3993112  44.9285233
  70.4898986 110.3038743  44.8131899  71.4166104 109.4409640  45.6429302
  71.7065327 106.7769961  41.5186592  72.3028899 106.5525983  40.8043555
  71.7640298 106.0354706  42.1212040  71.2790355 104.2309396  29.3536783
  71.5315876 103.7090917  28.5920246  70.3414914 104.0675541  29.4563467
  76.3233638 103.2345174  37.1611527  77.1096727 102.8164598  36.8101944
  76.5872342 104.1391267  37.3293175  81.7242065 103.1720408  38.0644505
  82.4567237 102.6019624  38.2982335  80.9681421 102.7842008  38.5051011
  70.9986644 106.1337502  31.5561158  70.8822902 105.4582405  32.2242243
  71.1088904 105.6469876  30.7393311  73.3418185 105.5947649  35.2607847
  72.9776392 105.0678270  35.9720769  74.1985301 105.2046118  35.0874333
  79.2467486  96.8841982  42.5239114  78.9150810  97.7537393  42.3000329
  78.6513099  96.5678266  43.2033144  72.9823672 100.6237549  30.2569196
  73.1498074 101.4917785  30.6239667  72.7920841 100.7864830  29.3330485
  69.1911487 105.5368324  37.9571731  68.2661983 105.4044539  38.1649423
  69.4395900 106.3162544  38.4541673  79.1396149 101.6037068  39.6032464
  78.2313026 101.5352476  39.3091225  79.0883745 102.0809013  40.4314289
  72.9612893 103.0795206  31.2415863  72.8412518 103.5252257  32.0801343
  72.2665481 103.4280524  30.6829401  66.5520298 105.1801598  38.7915520
  66.6812679 105.4336077  39.7054932  65.8717749 105.7729306  38.4720175
  73.2137015 103.0226713  47.5467361  72.4370349 103.5820634  47.5370226
  73.8527578 103.5083496  48.0682231  81.0057795  99.8053506  41.3810338
  80.3632175 100.0986039  40.7350132  80.5012724  99.6906427  42.1863534
  78.6597959 103.5516679  32.0696197  79.5715815 103.7844066  31.8943894
  78.1507606 104.1353724  31.5071275  71.4683387 105.8312167  47.1085328
  72.2098071 106.3697211  46.8320152  70.7620372 106.4578456  47.2656880
  73.2969797 102.9113914  43.0791046  74.1430992 103.3353328  43.2225695
  73.2368434 102.2547538  43.7729610  76.4469242 100.5718282  44.7372220
  76.2030174 101.3260343  44.2006496  76.7229172 100.9503630  45.5719467
  76.0033934  99.7274715  40.3186058  75.1418413 100.0255969  40.6102795
  76.0296368  99.9445114  39.3867090  72.8195503 108.2716906  36.7259863
  73.2833849 108.5504609  35.9364486  72.5552301 107.3700351  36.5432954
  69.7119584 107.8188387  39.6639627  70.2820941 108.2475656  39.0257111
  70.3027696 107.5370972  40.3623812  71.7564389 104.3940058  33.5349429
  72.4588432 104.8461102  34.0023355  71.4245018 103.7523877  34.1629322
  70.2044751 102.9851815  47.9100638  69.5743411 103.6668096  48.1436035
  70.0980839 102.8734897  46.9653776  65.4989723 102.6523611  38.8366562
  64.7088777 102.9081140  38.3606673  65.9900970 103.4671949  38.9418603
  67.4504468 103.0168190  35.7950039  66.6535632 103.1286884  36.3133535
  67.2230061 103.3554842  34.9290929  63.7827426 102.9054101  41.2681553
  64.0335465 103.7901111  41.5339129  64.3186974 102.7258703  40.4956645
  69.4825493  97.2872581  50.2725889  69.0892439  96.7338779  50.9473533
  70.2991634  97.5983159  50.6632407  66.4487551 108.7256439  34.1839459
  66.9612072 109.5199689  34.3345024  67.1010264 108.0282729  34.1173060
  72.3993454  98.7030460  47.8646146  73.1403168  99.3037613  47.7850608
  72.6311377  97.9608098  47.3064188  67.5434792 103.8886827  46.1424375
  67.4288308 102.9872084  46.4431474  66.6879310 104.1350524  45.7909192
  73.1780922 109.6251497  46.6116785  73.7109259 108.8639785  46.3816093
  72.6495003 109.3325149  47.3540940  76.3450617  94.7311563  42.1410427
  76.0014887  95.6213205  42.0649538  76.7129580  94.5413220  41.2780012
  64.4136468 107.0545093  34.9599029  65.2511690 107.4642102  34.7432737
  64.5914736 106.1144535  34.9299223  76.3100900 104.7220174  30.6482862
  75.7947524 105.4924779  30.8871250  76.0378209 104.0485310  31.2715924
  73.8948011  99.5669875  35.7068101  73.0389607  99.1776725  35.5273739
  74.3074963  99.6461836  34.8467886  75.4247158  97.1016218  40.1059660
  74.9211953  97.0646353  39.2927466  75.7177765  98.0108961  40.1656317
  71.6690044  97.1854948  39.1125842  72.5343040  96.9897756  38.7531732
  71.7367553  96.9565299  40.0395199  76.0987203 102.5947266  32.4742644
  75.7937339 102.9093415  33.3252787  77.0517645 102.6728686  32.5169977
  69.2752363  99.4157156  36.4842209  69.8496115  99.1932337  35.7515402
  69.8623345  99.4845850  37.2370810  78.3331940 105.3030883  37.2906586
  78.8463822 105.9360874  37.7928295  78.9833164 104.7032078  36.9249946
  69.6021950 101.4461617  30.5038094  68.7659262 101.7836303  30.8247369
  69.4626719 101.3110596  29.5665231  71.5775030  96.2898405  35.2117278
  70.9239443  95.9747422  34.5873893  71.5355505  95.6674145  35.9377101
  74.8112771 102.7780338  39.5364926  73.8935332 102.9995285  39.3786614
  75.2272914 102.8526649  38.6776633  75.5947819 104.1771754  34.6667606
  76.3419637 104.6893151  34.3574728  75.8639408 103.8555806  35.5272000
  73.8674469 106.6730294  31.6494561  72.9585688 106.3889327  31.7467030
  73.8969553 107.0929373  30.7897867  78.0426656 101.2128870  36.6486396
  77.3049412 100.7006256  36.9796638  78.2953429 100.7729252  35.8369673
  78.1438283  93.9905122  37.2428165  78.4497160  93.1302485  36.9554080
  78.8690888  94.5822742  37.0427159  64.4362639 104.3935809  35.6309763
  64.2387039 103.8005169  34.9060829  63.8809303 104.0888019  36.3485702
  72.4159363 104.2858915  37.7504356  72.4707973 103.3332751  37.6746833
  71.6050565 104.4418354  38.2345654  70.3551723 102.9035975  35.5094735
  69.5419588 103.2030145  35.9159927  70.8510717 102.5091664  36.2269217
  75.9525934 103.3677799  44.3409629  76.3075322 103.5949272  45.2004095
  76.5998066 103.6996176  43.7186884  69.8465797 100.4754330  41.1255970
  70.4865177 100.3343089  40.4278933  69.0143328 100.1888844  40.7494572
  70.6226101 109.7756761  37.2390962  71.4166700 109.2807081  37.0373537
  69.9117794 109.2474624  36.8758668  66.9308865 103.9199843  33.3150715
  66.0006453 103.8584298  33.5320677  67.0266337 103.3975795  32.5187356
  66.8494414 100.4454655  35.9028957  67.1101231 101.3599989  35.7938117
  67.6711586  99.9779098  36.0525569  68.3219339 101.8592413  43.0727781
  68.9942393 101.6509775  42.4240430  67.4949126 101.6614499  42.6333013
  74.2244911  98.4854353  45.0893442  73.5772826  99.1844303  44.9957918
  74.9945927  98.9190497  45.4569690  74.4009046 106.3235118  43.1490262
  75.3301106 106.4746278  42.9759229  73.9800076 106.4119139  42.2938908
  68.7246836 105.1335015  43.8330218  68.5866634 104.4015254  44.4341757
  69.6351760 105.0443916  43.5514406  71.3529137 104.8454975  43.3213898
  72.0628756 104.2048167  43.2800516  71.3098445 105.0967870  44.2440079
  70.0658071 101.8320193  45.1409537  69.5295428 101.3810931  45.7931134
  69.4774780 101.9666102  44.3980002  69.4760330 101.2908844  27.7036001
  68.5989796 101.1697645  27.3398248  69.9518083 100.4994922  27.4514890
  60.9962470 106.0786004  37.7977508  61.6833510 105.7647734  37.2098524
  60.8410599 106.9827368  37.5244760  65.7997192 100.9676200  42.2262532
  65.7155381 100.3601870  41.4912942  64.9779899 101.4585219  42.2272028
  75.9720906  99.4529764  37.5932727  76.4689606  98.6999726  37.2733797
  75.2007888  99.4894081  37.0275936  72.5555875 101.5947147  37.3204412
  72.1853662 101.0418187  38.0085317  73.0514967 100.9905280  36.7679412
  78.4139901  96.4199357  39.7412086  77.5002981  96.6503584  39.9094293
  78.8433002  96.5037801  40.5926118  78.1846359 104.6089249  42.2411980
  77.5317810 104.8565157  41.5864433  78.5626739 103.7953388  41.9074457
  74.2333932 105.3509060  48.7278017  73.5574570 105.2503190  49.3980392
  75.0561566 105.1948274  49.1914014  60.5730446 104.1586597  40.0694975
  60.6114546 103.6250188  40.8632093  60.0670739 103.6321803  39.4505953
  67.9521209  99.0051138  43.5657518  68.0162535  99.8665969  43.1534915
  67.8888329  98.3925139  42.8329876  67.4273481 101.0774270  47.2130552
  68.0545520 100.6951348  47.8268076  66.5701400 100.8588472  47.5786244
  64.2039024 102.8850699  33.1448907  64.4992465 101.9761378  33.0915960
  63.3027060 102.8638439  32.8229909  67.7333271 100.9606696  39.1276455
  67.0119857 101.5742664  38.9883929  68.5226527 101.4964461  39.0493101
  70.5359584  98.2961122  45.4017107  71.0593986  98.5423419  46.1643416
  70.3171918  99.1281157  44.9820244  65.9326865 100.5664797  33.2688232
  65.6039572  99.6862176  33.0863338  66.2866236 100.5112466  34.1564621
  69.0468689 100.8537767  33.6363710  69.3864761 101.3823688  32.9142318
  69.4940809 101.1918173  34.4122276  71.7412129  99.2374818  43.0866778
  71.4008950  98.4382631  43.4887458  71.0351136  99.5376528  42.5143611
  72.3928601  96.3224130  41.5394101  73.2154671  95.8484608  41.4172991
  72.6366665  97.1014614  42.0392787  71.0336836  99.3512388  31.8357002
  71.7545198  99.7293641  31.3320719  70.4102140 100.0701265  31.9391980
  75.1767959 100.0557537  32.7715335  75.3931573 100.9382175  32.4704163
  74.6962026  99.6643751  32.0420977  69.9167180 103.0143251  39.3486079
  69.7711761 103.3283554  40.2410361  69.4392384 103.6328151  38.7956978
  71.7763563 100.0045799  39.3966969  71.7625132  99.1086892  39.0599267
  72.4935991 100.0116462  40.0305255  73.6289694 100.4383139  41.4420096
  73.3707471 101.3600209  41.4404427  73.0974734 100.0413573  42.1320560
  64.3912842 105.5548595  42.2873740  63.8466310 106.3308403  42.4194015
  65.2692192 105.9019399  42.1292862  71.1800459  98.8860179  34.6654539
  71.3016370  97.9576825  34.8645426  70.8902501  98.8998865  33.7532854
  74.0491649  96.5715089  37.8021259  74.0713346  96.6354422  36.8473238
  74.4659708  95.7319598  37.9961765  65.1778864 104.6818491  45.1803897
  64.4360600 104.8301127  45.7668528  64.8571608 104.9426757  44.3170647
  63.8244083 110.4870246  38.1703226  62.9875991 110.0592421  37.9887227
  63.7967728 110.6802690  39.1074017  70.6641538 100.3992176  48.8744472
  70.7129694 101.2754299  48.4922241  71.2064053  99.8569569  48.3016115
  70.1530518 110.4714312  32.7570426  70.3018638 111.1549776  32.1037099
  70.9596961 110.4519402  33.2719882  78.5598022 103.7756694  46.7837644
  79.4607884 103.6363159  46.4921642  78.6345996 103.9411149  47.7235821
  72.8940827 101.1523549  45.6290830  72.0244136 101.4457115  45.3573419
  73.1300307 101.7363994  46.3498094  67.9083151 106.4979489  33.7631495
  67.6629193 105.5941819  33.9611705  68.0779065 106.4996640  32.8210973
  75.5979861  97.3703166  43.1456251  76.1161805  98.1064192  42.8202739
  75.2434993  97.6767159  43.9803010  67.1778798 102.2307847  31.2617656
  66.4848043 102.3052202  30.6057692  66.9330550 101.4668190  31.7839173
  75.8492455  93.7903448  38.6657147  76.1294209  93.1226637  39.2917574
  76.6343062  93.9832544  38.1531811  79.7201313 102.2121082  42.4128722
  80.6718736 102.3119180  42.4340946  79.5504764 101.4199351  42.9226807
  77.7415693  99.2976665  42.5988123  77.1465625  99.5781678  41.9034612
  77.4565389  99.7870566  43.3704864  82.3483879 102.2238245  41.5729305
  81.8322928 101.4396702  41.3859234  83.2323828 101.8956962  41.7375825
  80.0094606  95.9679261  37.5325118  79.8119428  95.6594349  38.4168450
  80.6194312  96.6940900  37.6623048  73.9211414 108.3541001  49.0298883
  74.8414424 108.5319600  49.2238930  73.8860997 107.4097046  48.8778582
  72.2215639 102.2273231  27.5053111  71.3147094 101.9306344  27.5815825
  72.4991620 101.9303049  26.6387397  63.1393579 103.5479595  37.9552158
  62.8196364 102.6944903  37.6626532  62.5927008 103.7628173  38.7110125
  66.9173487 106.2642036  41.6721664  67.1359497 107.1959143  41.6909698
  67.3299261 105.9050010  42.4576468  73.8377705  96.7710121  33.6597353
  73.0278433  96.4257206  34.0352599  74.5262122  96.4617665  34.2484964
  75.7668253  95.8488168  35.2821649  76.3199292  96.2683621  35.9411672
  76.0038339  94.9223916  35.3244605  71.7901352 101.8375241  51.0624413
  71.6898079 102.7869598  50.9936504  71.5722894 101.5093480  50.1900483
  70.9914424  99.0860166  27.6465090  71.8533588  99.4115065  27.9060908
  71.1764768  98.2991662  27.1338156  63.0081839 107.1682506  39.9245279
  62.3145311 106.7536459  39.4115234  63.7554830 107.2103043  39.3278698
  79.1447060  97.9588693  34.7900313  78.5645729  98.6173497  34.4078366
  78.8782993  97.1366037  34.3787731  77.5950626  97.3593751  36.9921634
  78.0950405  97.4710285  36.1835953  78.2386234  97.0554803  37.6322442
  71.6532622 105.2672380  49.8789475  71.1699704 106.0672740  50.0853364
  71.7393561 105.2780325  48.9256919  64.9218582 107.1000760  37.8011294
  64.8989270 107.1988447  36.8493177  65.2319218 107.9465911  38.1228460
  67.5805960 109.1576915  41.9157909  68.5349213 109.1260857  41.8487840
  67.3818483 108.6967539  42.7308134  68.1705342 107.7278031  44.4828706
  68.9898231 108.2222110  44.5063543  68.4442150 106.8109999  44.4546274
  77.9271938 100.1188783  33.8456662  77.0397793 100.4038434  33.6276856
  78.3425927  99.9582547  32.9983939  81.2786474 100.1435304  37.5611001
  82.0546864 100.6331757  37.8335618  80.5534608 100.5693358  38.0182870
  83.7159033 100.8562923  38.6184942  84.3103524 100.6158659  37.9078250
  83.7885617 100.1370054  39.2458478  77.9012962 105.6343319  34.0606952
  77.8448163 106.0911871  33.2214584  78.4541304 104.8734004  33.8829795
  81.7117768 101.4233051  34.8857071  81.4554702 101.0229687  35.7165279
  81.0870636 102.1376845  34.7607211  63.4240256 102.0616165  45.1820903
  64.0699120 101.5515119  45.6708128  63.2157407 102.7984846  45.7564328
  71.9443867  96.3256209  30.9344799  71.9322536  97.2698049  31.0913070
  72.8367288  96.1426355  30.6404261  75.7595986  92.9198986  35.1890736
  74.9928382  92.3657473  35.3347419  76.1706691  92.9920855  36.0504888
  67.7637747  99.2083782  49.2795917  68.6269209  98.8520587  49.4899242
  67.1903158  98.8697677  49.9671322  19.8633088   6.9758535  32.7051355
  19.8521728   6.5811333  31.8331859  20.0253727   6.2424607  33.2985127
  16.5840349   9.7595646  31.6530539  16.2930215  10.6641277  31.5377206
  17.2197333   9.8012174  32.3674609  21.5430234   9.4457062  28.6480333
  21.2430957  10.3482101  28.5396140  21.1981293   9.1789245  29.5001486
  19.0168243   3.3829248  34.2712668  18.2401578   3.9423168  34.2615532
  19.6558807   3.8686031  34.7927538  17.2714616   6.1914701  33.8330635
  18.0129300   6.7299745  33.5565458  16.5651601   6.8180990  33.9902186
  22.7469955   8.3343841  32.4302796  23.1553311   7.8926252  31.6857428
  22.0247217   7.7596469  32.6836989  22.2500471   0.9320817  31.4617527
  22.0061403   1.6862877  30.9251802  22.5260401   1.3106164  32.2964774
  24.2038934   7.4759429  30.1394792  24.4155829   8.1191189  29.4629173
  24.1568682   6.6421746  29.6716722  25.3184761  10.3531384  28.3117150
  26.1402205   9.9511572  28.0299831  25.3147164  10.2499619  29.2633265
  19.0841365   9.9015428  30.4677860  19.1485797  10.3635835  31.3036032
  18.3752289   9.2712793  30.5960170  33.4090755   6.6970133  24.6602121
  32.6554463   6.1277531  24.5046125  33.5438296   6.6632797  25.6072756
  20.4257859  12.1907102  34.4657183  19.9821713  11.4043480  34.1478087
  21.0875073  12.3786252  33.8001073  15.1844980  13.7202903  28.9917861
  15.7352405  13.5919967  28.2194855  14.3456456  14.0197792  28.6412754
  22.5239097  12.4709902  32.4938584  22.5057572  13.2918783  32.0018853
  23.4459017  12.3463977  32.7188725  18.9812151   9.9854031  33.3362092
  19.5140488   9.2242319  33.1061400  18.4526232   9.6927683  34.0786247
  25.3257710   7.3089044  25.9647950  24.6681384   7.9988305  26.0528079
  26.1298109   7.6985476  26.3081937  21.7557163   3.7280334  31.0654935
  22.1106551   3.9551807  31.9249401  22.4029294   4.0598710  30.4432191
  27.5124280   8.9175296  26.7815536  27.9460786   8.8250586  27.6298590
  28.2255860   8.8932797  26.1435552  21.2452175  12.5177391  28.3148637
  21.2989197  13.0868327  29.0826352  20.3766956  12.6879276  27.9502674
  28.3739829   8.9598997  29.3148421  28.5675719   9.8644808  29.5607696
  28.2740447   8.5006416  30.1487006  23.4354938   9.1105740  34.8889302
  23.2840444   8.8816292  33.9719386  23.4259617  10.0676341  34.9020647
  20.2040274   6.6837653  29.8735568  21.1332334   6.8348812  29.7004536
  19.7831304   6.7721673  29.0184215  19.0028606  10.7088317  27.6434106
  18.8639692  10.3407101  28.5160044  18.2143202  11.2235956  27.4718064
  25.1447145  12.1424862  32.9665784  25.0859691  11.4584082  32.2996367
  25.5466663  12.8843852  32.5146410  14.1637843  18.9586776  25.7599503
  14.4034442  19.5905300  26.4378521  13.3207040  18.6074816  26.0464862
  25.1464552  10.1064446  31.1979763  24.2591331   9.7690368  31.3206162
  25.7163103   9.3747478  31.4348529  18.6765705  14.7665899  28.1641007
  18.6035877  15.5720870  28.6760311  18.2343098  14.9657864  27.3389028
  29.6281892   5.5172664  25.9596325  29.6171769   6.3997379  25.5890258
  28.7599272   5.1644214  25.7650862  21.1364389  14.6652733  30.3199165
  21.8492361  15.3000197  30.2475067  20.6454417  14.7616599  29.5039167
  16.1876302  12.4147176  31.1404736  16.8885762  13.0483659  31.2934130
  15.7171417  12.7561908  30.3800375  23.9877588   4.9691784  28.9657287
  23.3349039   5.2167691  28.3109739  24.3657968   4.1555922  28.6319764
  20.9484762  15.0051477  23.0685457  21.1307157  14.1873133  23.5313209
  21.7717748  15.2219169  22.6310347  20.0365161   5.7111595  35.4523324
  19.3605798   5.6105724  36.1225699  20.8592795   5.5550808  35.9159321
  18.7787944  17.0178522  29.6880940  19.3306252  17.1810144  30.4530025
  19.1194138  17.6082960  29.0160964  23.6298819  11.8439780  35.5429594
  24.1738722  12.4569738  35.0484549  23.0485663  12.4019358  36.0596607
  21.9156331  14.9660498  26.6744622  21.7907471  14.1650237  26.1655567
  22.5735423  15.4606691  26.1858592  23.9791240  12.7669518  28.3024172
  23.0321575  12.6474869  28.2302499  24.3274013  11.8792016  28.3850433
  24.5871795  13.3850793  25.5893397  25.5118342  13.1793654  25.4517848
  24.4187098  13.1367194  26.4982738  18.9253755  14.5837004  31.7029594
  19.2340882  14.3386150  32.5752294  19.7229238  14.7883642  31.2148464
  18.9474368  16.7374913  23.9334971  18.5079358  16.2451292  24.6267827
  19.6982485  16.1947881  23.6927046  26.9527613  11.3035834  34.8790915
  26.1623157  11.2859973  34.3395415  26.7160967  11.8424127  35.6339952
  27.0725488   8.1528300  32.1923644  27.1223493   7.9878307  33.1339167
  26.9639411   7.2855559  31.8021525  24.3629250   4.1359228  33.5082951
  25.2639113   3.9965693  33.2166948  24.4377225   4.3013683  34.4481128
  28.5743685  10.5725242  32.4365665  28.2828493  10.9355222  33.2729126
  27.9615816   9.8592250  32.2578997  29.7739367   8.1378121  24.9568236
  30.6086258   8.5767925  25.1205796  29.9098496   7.6616775  24.1376481
  26.8230873   5.6957856  30.9045723  27.2984995   5.8885503  30.0964575
  25.8996438   5.7517042  30.6589107  25.5232542   2.5723616  29.1374029
  26.4749965   2.6721714  29.1586253  25.3535992   1.7801885  29.6472113
  28.0020620   5.7929736  28.2516329  27.9696940   4.8545737  28.4376012
  28.6121243   5.8713773  27.5182153  28.1515108   2.5840779  28.2974612
  27.6354157   1.7999236  28.1104541  29.0355057   2.2559496  28.4621131
  33.8197170   6.8545743  27.3922365  34.5500558   6.5931031  27.9530069
  33.2104115   6.1174465  27.4324433  31.9012467   4.9953605  27.9896817
  31.1745630   4.8609570  27.3813308  31.4859754   5.3030434  28.7953535
  19.7242643   8.7143535  35.7544190  20.6445653   8.8922134  35.9484236
  19.6892226   7.7699580  35.6023889  17.4563851   5.6274914  36.6034781
  16.9730933   6.4275274  36.8098670  17.5424790   5.6382859  35.6502225
  13.9736571   8.0880565  31.2074013  14.7929460   8.5824644  31.2308850
  14.2473378   7.1712533  31.1791580  14.8956543  15.9568386  25.8691856
  14.7788927  16.9013818  25.7670546  14.0748990  15.6541947  26.2577655
  21.7524877   9.4899546  37.4058350  22.6216037   9.6640199  37.0444985
  21.2731629  10.3093963  37.2834080  15.9211057  16.6096647  29.0847784
  16.8238304  16.6420258  29.4014279  15.6948427  15.6797098  29.0994120
  17.6764659  15.3627634  25.7457863  16.7260290  15.3629496  25.6322235
  17.9797146  14.6160369  25.2293897  33.4117353  21.1988172  26.8103625
  34.0495763  21.0794920  26.1066965  33.2938196  22.1469016  26.8691577
  30.2207059  21.1515600  26.7465150  29.8825571  21.0356665  25.8585685
  31.0896827  20.7506766  26.7266156  26.0793875  23.0051077  22.7362041
  25.5158740  22.9141014  21.9678329  25.9646270  22.1850981  23.2164533
  30.7026842  22.3050452  32.7051355  30.6915483  21.9103250  31.8331859
  30.8647482  21.5716525  33.2985127  23.6258307  24.5002269  25.5746261
  24.4179599  24.1593093  25.1592561  23.8654957  24.6097244  26.4948415
  31.6593434  26.6722045  18.0476506  31.0081413  27.2576125  17.6610519
  32.4537796  27.2028240  18.1071543  25.5849061  23.7611182  18.4463640
  26.3579937  23.2140169  18.3076516  25.9374460  24.6255431  18.6578101
  27.4234103  25.0887564  31.6530539  27.1323969  25.9933195  31.5377206
  28.0591088  25.1304092  32.3674609  28.3490310  22.4664413  28.2431899
  28.9453882  22.2420435  27.5288862  28.4065282  21.7249158  28.8457347
  32.9658621  18.9239626  23.8856833  33.7521711  18.5059049  23.5347250
  33.2297326  19.8285718  24.0538482  33.1368699  24.3612477  18.5845490
  32.5014532  24.4347103  19.2966395  32.8066105  24.9506075  17.9064569
  38.3667048  18.8614859  24.7889812  39.0992220  18.2914076  25.0227641
  37.6106404  18.4736460  25.2296317  27.6411627  21.8231954  18.2806465
  27.5247885  21.1476857  18.9487549  27.7513887  21.3364328  17.4638618
  29.9843168  21.2842101  21.9853154  29.6201375  20.7572722  22.6966076
  30.8410284  20.8940570  21.8119640  35.8892469  12.5736434  29.2484420
  35.5575794  13.4431845  29.0245635  35.2938082  12.2572718  29.9278451
  32.3823988  24.7748980  28.6480333  32.0824711  25.6774018  28.5396140
  32.0375048  24.5081163  29.5001486  25.8336470  21.2262776  24.6817037
  24.9086966  21.0938990  24.8894729  26.0820883  22.0056996  25.1786980
  35.7821132  17.2931520  26.3277770  34.8738009  17.2246928  26.0336531
  35.7308728  17.7703465  27.1559596  29.6037876  18.7689658  17.9661169
  29.4837501  19.2146709  18.8046650  28.9090464  19.1174976  17.4074708
  23.1945281  20.8696050  25.5160826  23.3237662  21.1230529  26.4300238
  22.5142732  21.4623758  25.1965482  27.3644768  31.5393300  21.6151301
  27.2868798  32.4901125  21.6939781  26.7606412  31.1939172  22.2726227
  29.8561998  18.7121165  34.2712668  29.0795332  19.2715085  34.2615532
  30.4952561  19.1977948  34.7927538  37.6482779  15.4947958  28.1055644
  37.0057159  15.7880491  27.4595439  37.1437707  15.3800878  28.9108841
  35.3022942  19.2411131  18.7941504  36.2140798  19.4738518  18.6189201
  34.7932589  19.8248176  18.2316582  28.1108370  21.5206619  33.8330635
  28.8523055  22.0591663  33.5565458  27.4045356  22.1472907  33.9902186
  33.5863710  23.6635759  32.4302796  33.9947066  23.2218170  31.6857428
  32.8640971  23.0888387  32.6836989  29.9394780  18.6008366  29.8036353
  30.7855975  19.0247779  29.9471002  29.8793418  17.9441990  30.4974916
  33.9092525  24.2236950  26.1855085  33.2801387  24.3882664  25.4831153
  33.5218187  24.6378559  26.9566049  37.7881756  25.1591388  23.5399449
  37.1032795  25.5390289  22.9896482  37.8725606  25.7686714  24.2731396
  33.0894225  16.2612734  31.4617527  32.8455157  17.0154795  30.9251802
  33.3654156  16.6398082  32.2964774  35.0432688  22.8051347  30.1394792
  35.2549583  23.4483107  29.4629173  34.9962436  21.9713663  29.6716722
  32.6458917  15.4169167  27.0431364  31.7843396  15.7150421  27.3348102
  32.6721352  15.6339566  26.1112397  29.4620486  23.9611358  23.4505170
  29.9258832  24.2399061  22.6609793  29.1977285  23.0594802  23.2678261
  26.3544567  23.5082839  26.3884933  26.9245925  23.9370108  25.7502418
  26.9452679  23.2265424  27.0869119  28.3989372  20.0834510  20.2594735
  29.1013416  20.5355554  20.7268662  28.0670001  19.4418329  20.8874628
  26.8469734  18.6746267  34.6345945  26.2168395  19.3562548  34.8681341
  26.7405822  18.5629348  33.6899083  22.1414706  18.3418063  25.5611869
  21.3513760  18.5975591  25.0851979  22.6325954  19.1566401  25.6663909
  36.1578516  25.6823302  28.3117150  36.9795960  25.2803489  28.0299831
  36.1540919  25.5791536  29.2633265  24.0929452  18.7062642  22.5195345
  23.2960615  18.8181336  23.0378841  23.8655044  19.0449294  21.6536236
  29.9235119  25.2307345  30.4677860  29.9879552  25.6927753  31.3036032
  29.2146043  24.6004710  30.5960170  20.4252409  18.5948553  27.9926860
  20.6760448  19.4795563  28.2584436  20.9611958  18.4153155  27.2201951
  44.2484509  22.0262051  24.6602121  43.4948217  21.4569449  24.5046125
  44.3832050  21.9924715  25.6072756  29.6383137  26.8975453  20.3356840
  29.5028812  27.7426989  20.7641688  30.1792950  27.0994730  19.5722774
  26.1250477  12.9767033  36.9971196  25.7317422  12.4233231  37.6718840
  26.9416617  13.2877611  37.3877713  23.0912534  24.4150891  20.9084766
  23.6037055  25.2094141  21.0590330  23.7435247  23.7177181  20.8418367
  24.9007419  27.5316647  22.9907519  25.0774048  28.4534612  22.8028503
  25.6964253  27.2175066  23.4201898  29.0418438  14.3924912  34.5891452
  29.7828151  14.9932065  34.5095915  29.2736361  13.6502550  34.0309495
  24.1859776  19.5781279  32.8669682  24.0713291  18.6766536  33.1676781
  23.3304293  19.8244976  32.5154498  31.2651613  27.5199019  34.4657183
  30.8215468  26.7335398  34.1478087  31.9268827  27.7078170  33.8001073
  26.0238735  29.0494821  28.9917861  26.5746160  28.9211884  28.2194855
  25.1850211  29.3489710  28.6412754  33.3632852  27.8001819  32.4938584
  33.3451327  28.6210700  32.0018853  34.2852772  27.6755894  32.7188725
  29.8205906  25.3145949  33.3362092  30.3534242  24.5534237  33.1061400
  29.2919987  25.0219601  34.0786247  32.9875601  10.4206015  28.8655734
  32.6439870  11.3107656  28.7894844  33.3554563  10.2307672  28.0025319
  21.0561451  22.7439545  21.6844336  21.8936673  23.1536554  21.4678044
  21.2339719  21.8038987  21.6544530  32.9525883  20.4114626  17.3728169
  32.4372507  21.1819230  17.6116556  32.6803192  19.7379762  17.9961230
  30.5372994  15.2564327  22.4313407  29.6814591  14.8671177  22.2519046
  30.9499946  15.3356287  21.5713193  32.0672141  12.7910670  26.8304967
  31.5636937  12.7540805  26.0172772  32.3602748  13.7003413  26.8901624
  28.3115027  12.8749400  25.8371149  29.1768024  12.6792208  25.4777038
  28.3792536  12.6459751  26.7640506  37.9260157  23.1646980  19.3081342
  37.1489600  22.8258140  18.8636505  38.6051638  23.1699604  18.6336308
  32.7412187  18.2841718  19.1987950  32.4362322  18.5987867  20.0498093
  33.6942629  18.3623138  19.2415283  31.1858618  24.4431941  20.8480904
  30.6579980  23.7084701  20.5354142  30.6846121  25.2206618  20.6020872
  36.1651464  22.6380962  25.9647950  35.5075139  23.3280223  26.0528079
  36.9691864  23.0277394  26.3081937  25.9177346  15.1051608  23.2087516
  26.4921098  14.8826789  22.4760709  26.5048328  15.1740302  23.9616117
  34.9756923  20.9925334  24.0151892  35.4888805  21.6255326  24.5173602
  35.6258147  20.3926530  23.6495252  32.2379297  30.9709659  16.7712563
  31.5640996  31.2741355  17.3797521  32.6245119  31.7738739  16.4218020
  31.4537754  18.4674790  26.2610233  30.5360315  18.6889737  26.1031921
  31.8697898  18.5421100  25.4021940  32.2372802  19.8666206  21.3912913
  32.9844621  20.3787603  21.0820035  32.5064391  19.5450258  22.2517307
  30.5099452  22.3624746  18.3739867  29.6010671  22.0783779  18.4712337
  30.5394536  22.7823825  17.5143174  35.7418719  25.9731336  22.1431035
  35.2881047  25.1322246  22.1996225  35.1112686  26.6092734  22.4805815
  34.6851639  16.9023322  23.3731702  33.9474396  16.3900708  23.7041945
  34.9378413  16.4623704  22.5614979  34.1851659  27.8107833  23.0780853
  34.4774633  28.3712890  22.3593219  34.6950279  28.1036394  23.8334012
  34.7863266   9.6799574  23.9673472  35.0922143   8.8196937  23.6799387
  35.5115871  10.2717194  23.7672465  21.0787622  20.0830260  22.3555069
  20.8812022  19.4899621  21.6306136  20.5234286  19.7782471  23.0731008
  29.0584346  19.9753367  24.4749663  29.1132956  19.0227203  24.3992139
  28.2475548  20.1312806  24.9590961  30.2075540  23.9033490  15.7127946
  29.7694970  23.1869349  15.2533583  30.9485981  24.1309605  15.1513037
  26.9976706  18.5930427  22.2340041  26.1844572  18.8924597  22.6405234
  27.4935700  18.1986115  22.9514524  29.1485284  28.5888184  24.1674306
  29.1061463  28.8149030  23.2382838  30.0647983  28.3551558  24.3160107
  32.5950918  19.0572251  31.0654935  32.9500305  19.2843724  31.9249401
  33.2423049  19.3890628  30.4432191  38.3248655  22.1790687  21.7704264
  38.1866553  22.3692283  20.8425454  37.9684873  22.9410070  22.2272316
  26.4890781  16.1648782  27.8501276  27.1290160  16.0237541  27.1524240
  25.6568311  15.8783296  27.4739878  38.3518034  24.2467214  26.7815536
  38.7854541  24.1542503  27.6298590  39.0649615  24.2224715  26.1435552
  27.2651085  25.4651213  23.9636269  28.0591683  24.9701533  23.7618844
  26.5542777  24.9369076  23.6003974  32.0845929  27.8469308  28.3148637
  32.1382951  28.4160245  29.0826352  31.2160710  28.0171193  27.9502674
  23.4919397  16.1349107  22.6274263  23.7526214  17.0494440  22.5183424
  24.3136569  15.6673550  22.7770876  24.9644322  17.5486864  29.7973088
  25.6367376  17.3404227  29.1485737  24.1374109  17.3508950  29.3578320
  39.2133584  24.2890915  29.3148421  39.4069474  25.1936725  29.5607696
  39.1134202  23.8298334  30.1487006  30.8669894  14.1748805  31.8138749
  30.2197810  14.8738755  31.7203225  31.6370910  14.6084949  32.1814997
  34.2748692  24.4397657  34.8889302  34.1234199  24.2108209  33.9719386
  34.2653372  25.3968259  34.9020647  31.0434029  22.0129570  29.8735568
  31.9726089  22.1640730  29.7004536  30.6225059  22.1013591  29.0184215
  29.8422361  26.0380235  27.6434106  29.7033446  25.6699019  28.5160044
  29.0536957  26.5527874  27.4718064  30.4370513  31.1389331  18.9859643
  30.6122268  30.6677374  19.8005265  29.7503301  31.7655097  19.2140903
  31.3927576  25.4161837  25.0322944  31.0577408  25.3762607  25.9280594
  30.8931521  24.7506553  24.5593354  25.3671820  20.8229467  30.5575525
  25.2291618  20.0909706  31.1587064  26.2776743  20.7338367  30.2759713
  34.3286767  22.7617872  15.3060003  33.7115938  22.0364700  15.2093056
  33.8603256  23.5227232  14.9627078  27.9954120  20.5349427  30.0459205
  28.7053739  19.8942619  30.0045823  27.9523429  20.7862322  30.9685385
  35.9840899  27.4716780  32.9665784  35.9253445  26.7876000  32.2996367
  36.3860417  28.2135770  32.5146410  26.7083054  17.5214645  31.8654844
  26.1720411  17.0705383  32.5176440  26.1199763  17.6560553  31.1225308
  25.0031598  34.2878694  25.7599503  25.2428196  34.9197218  26.4378521
  24.1600794  33.9366734  26.0464862  35.9858306  25.4356364  31.1979763
  35.0985085  25.0982286  31.3206162  36.5556857  24.7039395  31.4348529
  17.6387453  21.7680456  24.5222815  18.3258493  21.4542186  23.9343830
  17.4835582  22.6721820  24.2490066  22.4422176  16.6570652  28.9507839
  22.3580364  16.0496322  28.2158248  21.6204882  17.1479671  28.9517335
  29.5159460  30.0957816  28.1641007  29.4429631  30.9012788  28.6760311
  29.0736853  30.2949782  27.3389028  29.3049239  29.3329586  21.6743828
  28.5216761  29.8751267  21.7682053  30.0041985  29.8503566  22.0738069
  32.6145889  15.1424216  24.3178034  33.1114589  14.3894178  23.9979104
  31.8432871  15.1788532  23.7521243  40.4675647  20.8464581  25.9596325
  40.4565523  21.7289297  25.5890258  39.5993026  20.4936132  25.7650862
  31.9758143  29.9944650  30.3199165  32.6886115  30.6292115  30.2475067
  31.4848172  30.0908516  29.5039167  33.6975670  23.8995903  21.8916457
  32.7631949  24.0197365  21.7221161  33.8752339  22.9968370  21.6276467
  29.1980858  17.2841599  24.0449718  28.8278646  16.7312639  24.7330624
  29.6939951  16.6799732  23.4924718  37.0848222  19.7413222  22.4266491
  37.5508674  20.5741214  22.3526794  37.5355722  19.2758204  23.1311750
  27.0270057  27.7439094  31.1404736  27.7279516  28.3775577  31.2934130
  26.5565172  28.0853825  30.3800375  35.1524453  26.0857044  19.4252643
  35.4284297  25.9713638  20.3346517  34.2828951  25.6874528  19.3864816
  35.0564884  12.1093809  26.4657392  34.1427964  12.3398036  26.6339599
  35.4857986  12.1932253  27.3171425  34.8271343  20.2983701  28.9657287
  34.1742793  20.5459609  28.3109739  35.2051723  19.4847839  28.6319764
  31.7878517  30.3343394  23.0685457  31.9700911  29.5165050  23.5313209
  32.6111503  30.5511087  22.6310347  32.1220682  29.2611580  20.3300505
  32.6508449  28.7504034  19.7170667  32.3848902  28.9454110  21.1946038
  30.8758916  21.0403512  35.4523324  30.1999553  20.9397642  36.1225699
  31.6986550  20.8842726  35.9159321  22.6237775  27.2775449  28.0735839
  23.2091212  26.5319137  28.2063743  22.4262613  27.5879406  28.9572503
  25.4776430  30.3126696  23.0898281  24.8086805  30.7972824  22.6062321
  25.3389300  30.5595917  24.0041660  17.2155430  19.8481049  26.7940282
  17.2539529  19.3144640  27.5877400  16.7095722  19.3216255  26.1751259
  29.6181699  32.3470440  29.6880940  30.1700007  32.5102061  30.4530025
  29.9587892  32.9374878  29.0160964  24.5946192  14.6945590  30.2902824
  24.6587518  15.5560420  29.8780222  24.5313312  14.0819591  29.5575183
  24.0698464  16.7668722  33.9375859  24.6970503  16.3845799  34.5513383
  23.2126383  16.5482924  34.3031551  34.4692573  27.1731697  35.5429594
  35.0132477  27.7861656  35.0484549  33.8879418  27.7311276  36.0596607
  32.7550086  30.2952415  26.6744622  32.6301225  29.4942155  26.1655567
  33.4129177  30.7898609  26.1858592  24.3758254  16.6501148  25.8521762
  23.6544840  17.2637116  25.7129235  25.1651510  17.1858913  25.7738408
  34.8184994  28.0961435  28.3024172  33.8715330  27.9766787  28.2302499
  35.1667767  27.2083933  28.3850433  27.1784568  13.9855574  32.1262414
  27.7018970  14.2317871  32.8888723  26.9596901  14.8175609  31.7065551
  31.8231428  27.8914152  24.5028524  31.6756390  26.9630859  24.6836094
  32.6484921  27.9134242  24.0185599  25.6893672  16.5432219  20.3609016
  26.0289744  17.0718140  19.6387625  26.1365792  16.8812625  21.1367583
  35.4265549  28.7142710  25.5893397  36.3512097  28.5085572  25.4517848
  35.2580853  28.4659111  26.4982738  28.3837113  14.9269269  29.8112084
  28.0433933  14.1277082  30.2132764  27.6776119  15.2270980  29.2388917
  29.0353585  12.0118582  28.2639407  29.8579654  11.5379060  28.1418298
  29.2791648  12.7909066  28.7638094  31.8192942  15.7451989  19.4960641
  32.0356556  16.6276627  19.1949469  31.3387009  15.3538203  18.7666283
  26.5592163  18.7037702  26.0731386  26.4136744  19.0178006  26.9655667
  26.0817367  19.3222603  25.5202285  28.4188546  15.6940250  26.1212275
  28.4050115  14.7981344  25.7844573  29.1360974  15.7010914  26.7550562
  30.2714677  16.1277591  28.1665403  30.0132455  17.0494661  28.1649733
  29.7399717  15.7308025  28.8565867  35.2160866  29.2328378  20.9455488
  35.3897743  28.6674800  20.1929341  35.7089757  30.0329273  20.7634978
  21.0337825  21.2443047  29.0119047  20.4891294  22.0202855  29.1439321
  21.9117175  21.5913851  28.8538169  27.8225442  14.5754631  21.3899846
  27.9441353  13.6471277  21.5890733  27.5327485  14.5893317  20.4778161
  30.6916633  12.2609541  24.5266565  30.7138329  12.3248874  23.5718545
  31.1084692  11.4214050  24.7207072  41.0700257  21.9964801  22.5645788
  41.5131403  21.2472126  22.1664911  40.1926767  21.9874937  22.1819520
  36.2036038  28.5495142  18.0452387  36.8986943  29.1701835  18.2639701
  36.5459188  27.6990493  18.3204764  21.8203847  20.3712943  31.9049204
  21.0785583  20.5195578  32.4913834  21.4996592  20.6321209  31.0415953
  38.1027461  25.9994848  19.5739717  38.6278785  26.3382120  18.8489037
  38.0149814  25.0641863  19.3902852  29.7647510  29.9128921  31.7029594
  30.0734636  29.6678068  32.5752294  30.5622992  30.1175560  31.2148464
  29.7868122  32.0666831  23.9334971  29.3473112  31.5743210  24.6267827
  30.5376239  31.5239799  23.6927046  22.2660461  28.2578372  23.9359599
  23.0918481  27.9582144  23.5558242  21.9154513  27.4885994  24.3849387
  27.2341994  27.6104840  26.0057272  26.6122003  26.9475545  25.7059500
  27.9046861  27.6365972  25.3230920  20.4669066  26.1764698  24.8948532
  19.6300974  25.7486873  24.7132533  20.4392711  26.3697142  25.8319323
  27.3066522  16.0886628  35.5989778  27.3554677  16.9648751  35.2167548
  27.8489036  15.5464021  35.0261421  37.7921367  26.6327751  34.8790915
  37.0016911  26.6151890  34.3395415  37.5554722  27.1716045  35.6339952
  37.9119242  23.4820218  32.1923644  37.9617247  23.3170225  33.1339167
  37.8033166  22.6147477  31.8021525  26.7955501  26.1608763  19.4815733
  26.9443621  26.8444228  18.8282405  27.6021945  26.1413853  19.9965188
  35.2023005  19.4651146  33.5082951  36.1032868  19.3257611  33.2166948
  35.2770979  19.6305601  34.4481128  29.5365810  16.8418001  32.3536137
  28.6669120  17.1351567  32.0818725  29.7725290  17.4258446  33.0743400
  39.4137439  25.9017159  32.4365665  39.1222248  26.2647140  33.2729126
  38.8009571  25.1884168  32.2578997  40.6133122  23.4670039  24.9568236
  41.4480013  23.9059843  25.1205796  40.7492250  22.9908692  24.1376481
  37.6624627  21.0249774  30.9045723  38.1378749  21.2177420  30.0964575
  36.7390193  21.0808960  30.6589107  24.5508134  22.1873941  20.4876802
  24.3054176  21.2836271  20.6857012  24.7204049  22.1891092  19.5456280
  32.2404844  13.0597617  29.8701557  32.7586788  13.7958644  29.5448046
  31.8859977  13.3661611  30.7048316  32.4917438   9.4797900  25.3902454
  32.7719192   8.8121089  26.0162880  33.2768045   9.6726996  24.8777118
  30.2950907  28.6556894  16.9527480  29.7224874  29.2747081  16.4997952
  30.8683700  29.2056256  17.4867402  36.3626296  17.9015534  29.1374029
  37.3143719  18.0013632  29.1586253  36.1929747  17.1093803  29.6472113
  34.3840676  14.9871117  29.3233430  33.7890608  15.2676130  28.6279918
  34.0990373  15.4765018  30.0950171  33.5148166  28.9394044  18.0836062
  34.4478840  28.8739606  18.2868938  33.4271379  29.7750311  17.6250595
  36.1436183  28.2559914  15.0440010  36.0649815  27.9219778  15.9375768
  36.9645850  28.7481682  15.0431482  38.8414374  21.1221654  28.2516329
  38.8090694  20.1837654  28.4376012  39.4514998  21.2005690  27.5182153
  38.9908863  17.9132697  28.2974612  38.4747911  17.1291154  28.1104541
  39.8748811  17.5851414  28.4621131  36.6519590  11.6573713  24.2570424
  36.4544411  11.3488801  25.1413756  37.2619295  12.3835352  24.3868354
  44.6590924  22.1837660  27.3922365  45.3894313  21.9222949  27.9530069
  44.0497870  21.4466382  27.4324433  42.7406221  20.3245523  27.9896817
  42.0139385  20.1901488  27.3813308  42.3253508  20.6322352  28.7953535
  30.5636398  24.0435453  35.7544190  31.4839407  24.2214052  35.9484236
  30.5285981  23.0991498  35.6023889  19.7818563  19.2374046  24.6797464
  19.4621347  18.3839355  24.3871838  19.2351991  19.4522625  25.4355432
  23.5598470  21.9536487  28.3966971  23.7784480  22.8853595  28.4155005
  23.9724244  21.5944462  29.1821775  32.4093236  11.5382620  22.0066956
  32.9624275  11.9578073  22.6656979  32.6463323  10.6118368  22.0489912
  28.4326336  17.5269693  37.7869720  28.3323062  18.4764050  37.7181811
  28.2147878  17.1987932  36.9145790  19.6506823  22.8576958  26.6490586
  18.9570294  22.4430911  26.1360540  20.3979814  22.8997494  26.0524005
  35.7872043  13.6483145  21.5145620  35.2070712  14.3067949  21.1323672
  35.5207976  12.8260489  21.1033038  34.2375610  13.0488202  23.7166940
  34.7375388  13.1604737  22.9081259  34.8811218  12.7449255  24.3567749
  28.2957606  20.9566832  36.6034781  27.8124687  21.7567192  36.8098670
  28.3818545  20.9674777  35.6502225  21.5643565  22.7895212  24.5256601
  21.5414253  22.8882899  23.5738484  21.8744202  23.6360362  24.8473767
  24.2230943  24.8471367  28.6403215  25.1774197  24.8155309  28.5733147
  24.0243467  24.3861990  29.4553441  24.8130325  23.4172483  31.2074013
  25.6323214  23.9116561  31.2308850  25.0867133  22.5004451  31.1791580
  34.5696921  15.8083235  20.5701968  33.6822776  16.0932886  20.3522163
  34.9850910  15.6476998  19.7229245  37.9211458  15.8329756  24.2856308
  38.6971848  16.3226209  24.5580924  37.1959592  16.2587810  24.7428177
  40.3584016  16.5457375  25.3430248  40.9528507  16.3053111  24.6323556
  40.4310600  15.8264506  25.9703784  22.5781172  30.3890986  25.6573413
  22.4435640  29.6291387  25.0911411  22.1613234  31.1131886  25.1902202
  33.7140135  25.5727910  14.6649988  34.4175985  25.7777912  15.2807644
  32.9902784  26.1404672  14.9299072  34.5437945  21.3237771  20.7852258
  34.4873147  21.7806322  19.9459891  35.0966288  20.5628456  20.6075101
  38.3542751  17.1127503  21.6102378  38.0979685  16.7124139  22.4410586
  37.7295619  17.8271297  21.4852517  42.6655089  19.8523576  24.1173669
  42.1054647  19.9216765  24.8905231  42.0598592  19.6764561  23.3973166
  25.7350298  31.2860303  25.8691856  25.6182682  32.2305736  25.7670546
  24.9142744  30.9833865  26.2577655  35.6226832  26.0110439  16.7148448
  36.4572436  25.5791637  16.5325923  35.4611175  25.8392453  17.6425343
  35.2772724  22.5142552  18.0804788  35.2221528  22.3486824  17.1393232
  34.6518780  23.2218585  18.2366977  20.0665239  17.7510617  31.9066210
  20.7124103  17.2409571  32.3953435  19.8582391  18.4879298  32.4809635
  32.5918632  24.8191464  37.4058350  33.4609791  24.9932116  37.0444985
  32.1125383  25.6385881  37.2834080  26.7604812  31.9388565  29.0847784
  27.6632059  31.9712175  29.4014279  26.5342182  31.0089016  29.0994120
  28.5158414  30.6919552  25.7457863  27.5654045  30.6921413  25.6322235
  28.8190900  29.9452286  25.2293897  24.4062730  14.8978234  36.0041224
  25.2694192  14.5415039  36.2144549  23.8328141  14.5592129  36.6916628
  44.2511107  36.5280090  26.8103625  44.8889517  36.4086837  26.1066965
  44.1331950  37.4760934  26.8691577  41.0600814  36.4807518  26.7465150
  40.7219325  36.3648583  25.8585685  41.9290582  36.0798683  26.7266156
  36.9187629  38.3342995  22.7362041  36.3552494  38.2432932  21.9678329
  36.8040024  37.5142899  23.2164533  41.5420597  37.6342370  32.7051355
  41.5309237  37.2395168  31.8331859  41.7041236  36.9008443  33.2985127
  34.4652061  39.8294186  25.5746261  35.2573353  39.4885011  25.1592561
  34.7048711  39.9389161  26.4948415  42.4987188  42.0013962  18.0476506
  41.8475168  42.5868043  17.6610519  43.2931551  42.5320157  18.1071543
  36.4242815  39.0903099  18.4463640  37.1973691  38.5432087  18.3076516
  36.7768214  39.9547349  18.6578101  38.2627858  40.4179482  31.6530539
  37.9717724  41.3225113  31.5377206  38.8984842  40.4596009  32.3674609
  39.1884065  37.7956330  28.2431899  39.7847637  37.5712353  27.5288862
  39.2459036  37.0541076  28.8457347  38.7609093  35.2495766  16.0782090
  39.0134614  34.7277287  15.3165553  37.8233652  35.0861911  16.1808774
  43.8052376  34.2531544  23.8856833  44.5915465  33.8350967  23.5347250
  44.0691080  35.1577636  24.0538482  43.9762453  39.6904394  18.5845490
  43.3408286  39.7639021  19.2966395  43.6459860  40.2797993  17.9064569
  49.2060803  34.1906777  24.7889812  49.9385975  33.6205994  25.0227641
  48.4500159  33.8028378  25.2296317  38.4805382  37.1523872  18.2806465
  38.3641640  36.4768775  18.9487549  38.5907642  36.6656245  17.4638618
  40.8236923  36.6134019  21.9853154  40.4595130  36.0864640  22.6966076
  41.6804039  36.2232488  21.8119640  46.7286223  27.9028351  29.2484420
  46.3969548  28.7723762  29.0245635  46.1331837  27.5864635  29.9278451
  40.4642410  31.6423918  16.9814503  40.6316812  32.5104155  17.3484974
  40.2739579  31.8051200  16.0575792  43.2217743  40.1040897  28.6480333
  42.9218466  41.0065936  28.5396140  42.8768802  39.8373080  29.5001486
  36.6730224  36.5554694  24.6817037  35.7480721  36.4230908  24.8894729
  36.9214638  37.3348913  25.1786980  46.6214887  32.6223437  26.3277770
  45.7131764  32.5538846  26.0336531  46.5702482  33.0995382  27.1559596
  40.4431631  34.0981576  17.9661169  40.3231256  34.5438627  18.8046650
  39.7484219  34.4466893  17.4074708  34.0339035  36.1987968  25.5160826
  34.1631417  36.4522447  26.4300238  33.3536487  36.7915676  25.1965482
  38.2038523  46.8685218  21.6151301  38.1262552  47.8193043  21.6939781
  37.6000166  46.5231090  22.2726227  40.6955752  34.0413083  34.2712668
  39.9189086  34.6007003  34.2615532  41.3346315  34.5269866  34.7927538
  48.4876533  30.8239876  28.1055644  47.8450913  31.1172409  27.4595439
  47.9831462  30.7092796  28.9108841  46.1416697  34.5703049  18.7941504
  47.0534553  34.8030436  18.6189201  45.6326344  35.1540093  18.2316582
  38.9502125  36.8498536  33.8330635  39.6916809  37.3883580  33.5565458
  38.2439110  37.4764825  33.9902186  44.4257464  38.9927677  32.4302796
  44.8340820  38.5510087  31.6857428  43.7034726  38.4180304  32.6836989
  40.7788534  33.9300284  29.8036353  41.6249730  34.3539697  29.9471002
  40.7187172  33.2733908  30.4974916  44.7486279  39.5528867  26.1855085
  44.1195141  39.7174582  25.4831153  44.3611941  39.9670477  26.9566049
  48.6275511  40.4883305  23.5399449  47.9426549  40.8682207  22.9896482
  48.7119360  41.0978632  24.2731396  43.9287980  31.5904652  31.4617527
  43.6848912  32.3446712  30.9251802  44.2047910  31.9690000  32.2964774
  45.8826443  38.1343264  30.1394792  46.0943338  38.7775024  29.4629173
  45.8356191  37.3005581  29.6716722  43.4852671  30.7461085  27.0431364
  42.6237151  31.0442339  27.3348102  43.5115106  30.9631484  26.1112397
  40.3014241  39.2903276  23.4505170  40.7652586  39.5690979  22.6609793
  40.0371039  38.3886720  23.2678261  37.1938322  38.8374757  26.3884933
  37.7639679  39.2662025  25.7502418  37.7846434  38.5557342  27.0869119
  39.2383127  35.4126428  20.2594735  39.9407170  35.8647472  20.7268662
  38.9063755  34.7710247  20.8874628  37.6863488  34.0038185  34.6345945
  37.0562149  34.6854465  34.8681341  37.5799576  33.8921266  33.6899083
  32.9808461  33.6709981  25.5611869  32.1907515  33.9267509  25.0851979
  33.4719708  34.4858318  25.6663909  46.9972270  41.0115220  28.3117150
  47.8189714  40.6095407  28.0299831  46.9934673  40.9083454  29.2633265
  34.9323206  34.0354560  22.5195345  34.1354370  34.1473254  23.0378841
  34.7048798  34.3741212  21.6536236  40.7628874  40.5599263  30.4677860
  40.8273306  41.0219670  31.3036032  40.0539798  39.9296628  30.5960170
  31.2646164  33.9240471  27.9926860  31.5154202  34.8087481  28.2584436
  31.8005712  33.7445073  27.2201951  40.4776892  42.2267371  20.3356840
  40.3422566  43.0718906  20.7641688  41.0186704  42.4286648  19.5722774
  36.9644231  28.3058950  36.9971196  36.5711177  27.7525149  37.6718840
  37.7810372  28.6169529  37.3877713  33.9306289  39.7442809  20.9084766
  34.4430810  40.5386059  21.0590330  34.5829002  39.0469099  20.8418367
  35.7401174  42.8608565  22.9907519  35.9167802  43.7826530  22.8028503
  36.5358007  42.5466984  23.4201898  39.8812192  29.7216829  34.5891452
  40.6221906  30.3223983  34.5095915  40.1130115  28.9794467  34.0309495
  35.0253530  34.9073197  32.8669682  34.9107045  34.0058454  33.1676781
  34.1698048  35.1536893  32.5154498  42.1045368  42.8490937  34.4657183
  41.6609222  42.0627316  34.1478087  42.7662582  43.0370088  33.8001073
  36.8632489  44.3786739  28.9917861  37.4139914  44.2503802  28.2194855
  36.0243965  44.6781628  28.6412754  44.2026606  43.1293737  32.4938584
  44.1845081  43.9502618  32.0018853  45.1246526  43.0047812  32.7188725
  40.6599660  40.6437866  33.3362092  41.1927997  39.8826155  33.1061400
  40.1313741  40.3511518  34.0786247  43.8269355  25.7497932  28.8655734
  43.4833625  26.6399574  28.7894844  44.1948318  25.5599590  28.0025319
  31.8955206  38.0731463  21.6844336  32.7330428  38.4828471  21.4678044
  32.0733473  37.1330905  21.6544530  43.7919638  35.7406543  17.3728169
  43.2766261  36.5111148  17.6116556  43.5196946  35.0671680  17.9961230
  41.3766749  30.5856244  22.4313407  40.5208345  30.1963095  22.2519046
  41.7893701  30.6648205  21.5713193  42.9065896  28.1202588  26.8304967
  42.4030691  28.0832723  26.0172772  43.1996502  29.0295330  26.8901624
  39.1508781  28.2041317  25.8371149  40.0161778  28.0084126  25.4777038
  39.2186290  27.9751669  26.7640506  48.7653912  38.4938898  19.3081342
  47.9883355  38.1550058  18.8636505  49.4445393  38.4991521  18.6336308
  43.5805941  33.6133636  19.1987950  43.2756077  33.9279785  20.0498093
  44.5336383  33.6915055  19.2415283  42.0252373  39.7723859  20.8480904
  41.4973734  39.0376618  20.5354142  41.5239876  40.5498535  20.6020872
  47.0045219  37.9672879  25.9647950  46.3468893  38.6572141  26.0528079
  47.8085618  38.3569311  26.3081937  36.7571100  30.4343525  23.2087516
  37.3314852  30.2118707  22.4760709  37.3442083  30.5032220  23.9616117
  45.8150678  36.3217252  24.0151892  46.3282559  36.9547244  24.5173602
  46.4651902  35.7218448  23.6495252  37.0840688  32.4647986  17.2283401
  36.2478000  32.8022673  17.5492676  36.9445457  32.3296966  16.2910538
  39.0593768  27.3084774  21.9362585  38.4058181  26.9933791  21.3119200
  39.0174242  26.6860515  22.6622408  40.1704973  37.5904069  13.8515877
  39.2632035  37.3593323  14.0507026  40.6676005  36.7941688  14.0389859
  43.0773052  46.3001576  16.7712563  42.4034751  46.6033273  17.3797521
  43.4638874  47.1030657  16.4218020  42.2931509  33.7966708  26.2610233
  41.3754070  34.0181655  26.1031921  42.7091652  33.8713018  25.4021940
  43.0766556  35.1958123  21.3912913  43.8238375  35.7079521  21.0820035
  43.3458146  34.8742176  22.2517307  41.3493206  37.6916664  18.3739867
  40.4404426  37.4075697  18.4712337  41.3788290  38.1115743  17.5143174
  46.5812474  41.3023254  22.1431035  46.1274801  40.4614163  22.1996225
  45.9506441  41.9384652  22.4805815  45.5245393  32.2315240  23.3731702
  44.7868150  31.7192626  23.7041945  45.7772167  31.7915621  22.5614979
  45.0245413  43.1399750  23.0780853  45.3168388  43.7004807  22.3593219
  45.5344034  43.4328311  23.8334012  45.6257021  25.0091492  23.9673472
  45.9315898  24.1488855  23.6799387  46.3509626  25.6009112  23.7672465
  31.9181377  35.4122178  22.3555069  31.7205777  34.8191539  21.6306136
  31.3628041  35.1074388  23.0731008  39.8978101  35.3045285  24.4749663
  39.9526710  34.3519121  24.3992139  39.0869303  35.4604724  24.9590961
  41.0469294  39.2325408  15.7127946  40.6088724  38.5161267  15.2533583
  41.7879735  39.4601523  15.1513037  37.8370460  33.9222344  22.2340041
  37.0238326  34.2216515  22.6405234  38.3329455  33.5278033  22.9514524
  39.9879038  43.9180101  24.1674306  39.9455217  44.1440948  23.2382838
  40.9041737  43.6843476  24.3160107  43.4344672  34.3864169  31.0654935
  43.7894060  34.6135642  31.9249401  44.0816803  34.7182546  30.4432191
  49.1642409  37.5082605  21.7704264  49.0260308  37.6984201  20.8425454
  48.8078628  38.2701988  22.2272316  37.3284535  31.4940700  27.8501276
  37.9683915  31.3529459  27.1524240  36.4962066  31.2075213  27.4739878
  49.1911789  39.5759132  26.7815536  49.6248295  39.4834421  27.6298590
  49.9043369  39.5516632  26.1435552  38.1044839  40.7943130  23.9636269
  38.8985438  40.2993450  23.7618844  37.3936532  40.2660993  23.6003974
  42.9239684  43.1761226  28.3148637  42.9776706  43.7452162  29.0826352
  42.0554465  43.3463111  27.9502674  34.4127603  34.9386212  20.0396022
  33.4825191  34.8770668  20.2565984  34.5085075  34.4162165  19.2432663
  34.3313152  31.4641025  22.6274263  34.5919969  32.3786358  22.5183424
  35.1530324  30.9965467  22.7770876  35.8038077  32.8778782  29.7973088
  36.4761130  32.6696144  29.1485737  34.9767863  32.6800868  29.3578320
  50.0527338  39.6182832  29.3148421  50.2463228  40.5228643  29.5607696
  49.9527956  39.1590251  30.1487006  41.7063649  29.5040723  31.8138749
  41.0591564  30.2030673  31.7203225  42.4764664  29.9376867  32.1814997
  45.1142447  39.7689575  34.8889302  44.9627953  39.5400127  33.9719386
  45.1047126  40.7260177  34.9020647  41.8827783  37.3421488  29.8735568
  42.8119843  37.4932648  29.7004536  41.4618813  37.4305509  29.0184215
  40.6816115  41.3672152  27.6434106  40.5427201  40.9990937  28.5160044
  39.8930711  41.8819792  27.4718064  41.2764267  46.4681249  18.9859643
  41.4516023  45.9969292  19.8005265  40.5897055  47.0947015  19.2140903
  42.2321330  40.7453755  25.0322944  41.8971163  40.7054525  25.9280594
  41.7325276  40.0798471  24.5593354  36.2065574  36.1521385  30.5575525
  36.0685372  35.4201624  31.1587064  37.1170498  36.0630285  30.2759713
  45.1680522  38.0909789  15.3060003  44.5509693  37.3656618  15.2093056
  44.6997010  38.8519150  14.9627078  38.8347875  35.8641344  30.0459205
  39.5447493  35.2234537  30.0045823  38.7917183  36.1154239  30.9685385
  46.8234654  42.8008698  32.9665784  46.7647200  42.1167918  32.2996367
  47.2254172  43.5427688  32.5146410  37.5476809  32.8506562  31.8654844
  37.0114166  32.3997301  32.5176440  36.9593517  32.9852471  31.1225308
  35.8425352  49.6170612  25.7599503  36.0821951  50.2489136  26.4378521
  34.9994549  49.2658652  26.0464862  36.9579068  32.3095214  14.4281308
  36.0808534  32.1884014  14.0643554  37.4336821  31.5181292  14.1760196
  46.8252061  40.7648282  31.1979763  45.9378840  40.4274203  31.3206162
  47.3950612  40.0331313  31.4348529  28.4781208  37.0972373  24.5222815
  29.1652248  36.7834103  23.9343830  28.3229337  38.0013738  24.2490066
  33.2815930  31.9862570  28.9507839  33.1974119  31.3788240  28.2158248
  32.4598637  32.4771588  28.9517335  40.3553214  45.4249734  28.1641007
  40.2823386  46.2304705  28.6760311  39.9130607  45.6241700  27.3389028
  40.1442994  44.6621504  21.6743828  39.3610516  45.2043184  21.7682053
  40.8435739  45.1795484  22.0738069  43.4539644  30.4716133  24.3178034
  43.9508344  29.7186096  23.9979104  42.6826625  30.5080450  23.7521243
  42.8151898  45.3236568  30.3199165  43.5279870  45.9584033  30.2475067
  42.3241926  45.4200434  29.5039167  44.5369425  39.2287821  21.8916457
  43.6025703  39.3489283  21.7221161  44.7146093  38.3260287  21.6276467
  40.0374613  32.6133516  24.0449718  39.6672400  32.0604557  24.7330624
  40.5333705  32.0091650  23.4924718  47.9241976  35.0705140  22.4266491
  48.3902428  35.9033132  22.3526794  48.3749477  34.6050122  23.1311750
  37.8663811  43.0731011  31.1404736  38.5673271  43.7067494  31.2934130
  37.3958926  43.4145743  30.3800375  45.9918207  41.4148961  19.4252643
  46.2678051  41.3005556  20.3346517  45.1222706  41.0166446  19.3864816
  45.8958639  27.4385727  26.4657392  44.9821719  27.6689954  26.6339599
  46.3251740  27.5224171  27.3171425  45.6665097  35.6275619  28.9657287
  45.0136547  35.8751526  28.3109739  46.0445477  34.8139757  28.6319764
  42.6272271  45.6635312  23.0685457  42.8094666  44.8456968  23.5313209
  43.4505257  45.8803004  22.6310347  42.9614437  44.5903497  20.3300505
  43.4902203  44.0795952  19.7170667  43.2242656  44.2746027  21.1946038
  41.7152670  36.3695430  35.4523324  41.0393307  36.2689559  36.1225699
  42.5380304  36.2134644  35.9159321  33.4631529  42.6067367  28.0735839
  34.0484966  41.8611054  28.2063743  33.2656368  42.9171323  28.9572503
  36.3170185  45.6418614  23.0898281  35.6480560  46.1264742  22.6062321
  36.1783054  45.8887834  24.0041660  28.0549184  35.1772967  26.7940282
  28.0933284  34.6436557  27.5877400  27.5489477  34.6508172  26.1751259
  40.4575453  47.6762357  29.6880940  41.0093761  47.8393979  30.4530025
  40.7981647  48.2666795  29.0160964  35.4339946  30.0237507  30.2902824
  35.4981273  30.8852338  29.8780222  35.3707067  29.4111509  29.5575183
  34.9092219  32.0960640  33.9375859  35.5364258  31.7137717  34.5513383
  34.0520138  31.8774842  34.3031551  31.6857762  33.9037069  19.8694213
  31.9811203  32.9947747  19.8161267  30.7845797  33.8824808  19.5475216
  43.5943840  45.6244333  26.6744622  43.4694980  44.8234073  26.1655567
  44.2522932  46.1190526  26.1858592  35.2152009  31.9793065  25.8521762
  34.4938594  32.5929033  25.7129235  36.0045264  32.5150830  25.7738408
  45.6578749  43.4253353  28.3024172  44.7109084  43.3058704  28.2302499
  46.0061522  42.5375851  28.3850433  38.0178322  29.3147492  32.1262414
  38.5412724  29.5609789  32.8888723  37.7990655  30.1467527  31.7065551
  33.4145603  31.5851167  19.9933539  33.0858309  30.7048545  19.8108644
  33.7684974  31.5298835  20.8809928  42.6625182  43.2206069  24.5028524
  42.5150145  42.2922777  24.6836094  43.4878676  43.2426160  24.0185599
  36.5287426  31.8724136  20.3609016  36.8683499  32.4010058  19.6387625
  36.9759547  32.2104542  21.1367583  46.2659304  44.0434628  25.5893397
  47.1905851  43.8377489  25.4517848  46.0974607  43.7951029  26.4982738
  39.2230867  30.2561187  29.8112084  38.8827688  29.4569000  30.2132764
  38.5169874  30.5562898  29.2388917  39.8747339  27.3410499  28.2639407
  40.6973408  26.8670978  28.1418298  40.1185403  28.1200983  28.7638094
  38.5155574  30.3698758  18.5602309  39.2363936  30.7480011  18.0566026
  37.8920878  31.0887635  18.6637287  42.6586696  31.0743907  19.4960641
  42.8750311  31.9568545  19.1949469  42.1780764  30.6830120  18.7666283
  37.3985918  34.0329620  26.0731386  37.2530499  34.3469923  26.9655667
  36.9211121  34.6514520  25.5202285  39.2582301  31.0232168  26.1212275
  39.2443869  30.1273261  25.7844573  39.9754729  31.0302832  26.7550562
  41.1108431  31.4569508  28.1665403  40.8526209  32.3786579  28.1649733
  40.5793472  31.0599943  28.8565867  46.0554620  44.5620295  20.9455488
  46.2291498  43.9966718  20.1929341  46.5483511  45.3621190  20.7634978
  31.8731580  36.5734965  29.0119047  31.3285048  37.3494773  29.1439321
  32.7510930  36.9205769  28.8538169  38.6619197  29.9046548  21.3899846
  38.7835108  28.9763195  21.5890733  38.3721239  29.9185234  20.4778161
  41.5310387  27.5901459  24.5266565  41.5532084  27.6540792  23.5718545
  41.9478446  26.7505967  24.7207072  51.9094011  37.3256718  22.5645788
  52.3525157  36.5764044  22.1664911  51.0320522  37.3166855  22.1819520
  47.0429793  43.8787060  18.0452387  47.7380697  44.4993753  18.2639701
  47.3852943  43.0282411  18.3204764  32.6597602  35.7004861  31.9049204
  31.9179338  35.8487496  32.4913834  32.3390346  35.9613126  31.0415953
  48.9421216  41.3286765  19.5739717  49.4672540  41.6674038  18.8489037
  48.8543568  40.3933781  19.3902852  40.6041264  45.2420839  31.7029594
  40.9128391  44.9969986  32.5752294  41.4016747  45.4467478  31.2148464
  40.6261877  47.3958749  23.9334971  40.1866867  46.9035127  24.6267827
  41.3769993  46.8531716  23.6927046  33.1054216  43.5870290  23.9359599
  33.9312235  43.2874061  23.5558242  32.7548268  42.8177912  24.3849387
  38.0735749  42.9396758  26.0057272  37.4515758  42.2767463  25.7059500
  38.7440616  42.9657890  25.3230920  31.3062821  41.5056616  24.8948532
  30.4694729  41.0778790  24.7132533  31.2786466  41.6989059  25.8319323
  38.1460276  31.4178546  35.5989778  38.1948432  32.2940669  35.2167548
  38.6882790  30.8755939  35.0261421  48.6315122  41.9619669  34.8790915
  47.8410666  41.9443808  34.3395415  48.3948476  42.5007963  35.6339952
  48.7512997  38.8112135  32.1923644  48.8011002  38.6462143  33.1339167
  48.6426920  37.9439394  31.8021525  37.6349256  41.4900681  19.4815733
  37.7837376  42.1736145  18.8282405  38.4415699  41.4705771  19.9965188
  46.0416759  34.7943063  33.5082951  46.9426622  34.6549528  33.2166948
  46.1164734  34.9597518  34.4481128  40.3759565  32.1709918  32.3536137
  39.5062874  32.4643484  32.0818725  40.6119045  32.7550363  33.0743400
  50.2531194  41.2309077  32.4365665  49.9616002  41.5939057  33.2729126
  49.6403325  40.5176085  32.2578997  51.4526876  38.7961957  24.9568236
  52.2873767  39.2351761  25.1205796  51.5886005  38.3200610  24.1376481
  48.5018382  36.3541692  30.9045723  48.9772504  36.5469338  30.0964575
  47.5783947  36.4100877  30.6589107  35.3901889  37.5165859  20.4876802
  35.1447931  36.6128189  20.6857012  35.5597803  37.5183009  19.5456280
  43.0798598  28.3889535  29.8701557  43.5980542  29.1250562  29.5448046
  42.7253731  28.6953528  30.7048316  34.6597536  33.2494216  17.9862963
  33.9666781  33.3238571  17.3302999  34.4149288  32.4854560  18.5084480
  43.3311193  24.8089818  25.3902454  43.6112946  24.1413007  26.0162880
  44.1161800  25.0018913  24.8777118  41.1344661  43.9848812  16.9527480
  40.5618628  44.6038999  16.4997952  41.7077455  44.5348173  17.4867402
  47.2020051  33.2307452  29.1374029  48.1537474  33.3305549  29.1586253
  47.0323501  32.4385720  29.6472113  45.2234430  30.3163035  29.3233430
  44.6284363  30.5968048  28.6279918  44.9384127  30.8056936  30.0950171
  44.3541921  44.2685962  18.0836062  45.2872594  44.2031523  18.2868938
  44.2665134  45.1042229  17.6250595  46.9829938  43.5851832  15.0440010
  46.9043569  43.2511696  15.9375768  47.8039604  44.0773600  15.0431482
  49.6808129  36.4513571  28.2516329  49.6484449  35.5129572  28.4376012
  50.2908752  36.5297608  27.5182153  41.5191460  35.3209624  14.2943533
  42.4650564  35.1915832  14.3631951  41.1405705  34.5824286  14.7712961
  49.8302617  33.2424615  28.2974612  49.3141666  32.4583071  28.1104541
  50.7142566  32.9143331  28.4621131  47.4913344  26.9865630  24.2570424
  47.2938165  26.6780719  25.1413756  48.1013050  27.7127269  24.3868354
  53.5799976  35.6537441  27.9896817  52.8533139  35.5193406  27.3813308
  53.1647263  35.9614269  28.7953535  41.4030152  39.3727370  35.7544190
  42.3233162  39.5505969  35.9484236  41.3679735  38.4283416  35.6023889
  39.7034377  33.2459601  14.2298418  38.7965832  32.9492713  14.3061131
  39.9810358  32.9489419  13.3632704  30.6212317  34.5665964  24.6797464
  30.3015101  33.7131272  24.3871838  30.0745745  34.7814542  25.4355432
  34.3992225  37.2828405  28.3966971  34.6178234  38.2145513  28.4155005
  34.8117999  36.9236379  29.1821775  41.3196442  27.7896490  20.3842659
  40.5097171  27.4443575  20.7597905  42.0080859  27.4804034  20.9730271
  43.2486991  26.8674537  22.0066956  43.8018029  27.2869991  22.6656979
  43.4857077  25.9410285  22.0489912  39.2720090  32.8561611  37.7869720
  39.1716817  33.8055968  37.7181811  39.0541632  32.5279850  36.9145790
  38.4733161  30.1046536  14.3710397  39.3352325  30.4301434  14.6306214
  38.6583506  29.3178032  13.8583463  30.4900577  38.1868876  26.6490586
  29.7964049  37.7722828  26.1360540  31.2373568  38.2289412  26.0524005
  46.6265798  28.9775062  21.5145620  46.0464467  29.6359866  21.1323672
  46.3601731  28.1552407  21.1033038  45.0769364  28.3780120  23.7166940
  45.5769143  28.4896655  22.9081259  45.7204972  28.0741173  24.3567749
  39.1351360  36.2858750  36.6034781  38.6518442  37.0859110  36.8098670
  39.2212299  36.2966695  35.6502225  32.4037320  38.1187129  24.5256601
  32.3808008  38.2174817  23.5738484  32.7137956  38.9652280  24.8473767
  35.0624698  40.1763284  28.6403215  36.0167951  40.1447227  28.5733147
  34.8637221  39.7153908  29.4553441  35.6524080  38.7464400  31.2074013
  36.4716969  39.2408479  31.2308850  35.9260887  37.8296369  31.1791580
  45.4090676  31.1375153  20.5701968  44.5216531  31.4224803  20.3522163
  45.8244665  30.9768916  19.7229245  48.7605212  31.1621674  24.2856308
  49.5365602  31.6518126  24.5580924  48.0353346  31.5879728  24.7428177
  51.1977771  31.8749293  25.3430248  51.7922261  31.6345029  24.6323556
  51.2704354  31.1556424  25.9703784  33.4174926  45.7182904  25.6573413
  33.2829394  44.9583305  25.0911411  33.0006989  46.4423804  25.1902202
  44.5533889  40.9019827  14.6649988  45.2569739  41.1069830  15.2807644
  43.8296538  41.4696589  14.9299072  45.3831700  36.6529689  20.7852258
  45.3266901  37.1098240  19.9459891  45.9360042  35.8920373  20.6075101
  49.1936506  32.4419421  21.6102378  48.9373440  32.0416056  22.4410586
  48.5689374  33.1563214  21.4852517  53.5048843  35.1815494  24.1173669
  52.9448401  35.2508683  24.8905231  52.8992347  35.0056478  23.3973166
  36.5744052  46.6152221  25.8691856  36.4576436  47.5597653  25.7670546
  35.7536498  46.3125782  26.2577655  46.4620587  41.3402357  16.7148448
  47.2966191  40.9083555  16.5325923  46.3004930  41.1684370  17.6425343
  46.1166479  37.8434470  18.0804788  46.0615283  37.6778741  17.1393232
  45.4912534  38.5510503  18.2366977  30.9058994  33.0802534  31.9066210
  31.5517858  32.5701488  32.3953435  30.6976145  33.8171216  32.4809635
  43.4312386  40.1483382  37.4058350  44.3003546  40.3224034  37.0444985
  42.9519138  40.9677799  37.2834080  39.4262604  27.3442579  17.6590106
  39.4141274  28.2884419  17.8158377  40.3186026  27.1612724  17.3649567
  37.5998566  47.2680483  29.0847784  38.5025813  47.3004093  29.4014279
  37.3735936  46.3380934  29.0994120  39.3552168  46.0211469  25.7457863
  38.4047799  46.0213331  25.6322235  39.6584655  45.2744204  25.2293897
  43.2414724  23.9385356  21.9136043  42.4747120  23.3843842  22.0592725
  43.6525429  24.0107224  22.7750194  35.2456485  30.2270151  36.0041224
  36.1087946  29.8706956  36.2144549  34.6721896  29.8884046  36.6916628
  55.0904862  51.8572008  26.8103625  55.7283272  51.7378755  26.1066965
  54.9725705  52.8052852  26.8691577  51.8994568  51.8099436  26.7465150
  51.5613080  51.6940501  25.8585685  52.7684336  51.4090601  26.7266156
  47.7581384  53.6634912  22.7362041  47.1946249  53.5724849  21.9678329
  47.6433779  52.8434817  23.2164533  45.3045816  55.1586104  25.5746261
  46.0967108  54.8176928  25.1592561  45.5442466  55.2681079  26.4948415
  53.3380943  57.3305880  18.0476506  52.6868922  57.9159960  17.6610519
  54.1325305  57.8612075  18.1071543  47.2636570  54.4195017  18.4463640
  48.0367446  53.8724004  18.3076516  47.6161969  55.2839266  18.6578101
  49.1021612  55.7471399  31.6530539  48.8111478  56.6517030  31.5377206
  49.7378597  55.7887927  32.3674609  50.0277819  53.1248248  28.2431899
  50.6241391  52.9004270  27.5288862  50.0852791  52.3832993  28.8457347
  49.6002848  50.5787683  16.0782090  49.8528368  50.0569204  15.3165553
  48.6627407  50.4153829  16.1808774  54.6446130  49.5823462  23.8856833
  55.4309220  49.1642885  23.5347250  54.9084835  50.4869554  24.0538482
  54.8156208  55.0196312  18.5845490  54.1802041  55.0930938  19.2966395
  54.4853614  55.6089911  17.9064569  60.0454557  49.5198695  24.7889812
  60.7779729  48.9497912  25.0227641  59.2893913  49.1320295  25.2296317
  49.3199136  52.4815789  18.2806465  49.2035394  51.8060693  18.9487549
  49.4301396  51.9948163  17.4638618  51.6630677  51.9425936  21.9853154
  51.2988884  51.4156557  22.6966076  52.5197793  51.5524405  21.8119640
  57.5679978  43.2320269  29.2484420  57.2363303  44.1015680  29.0245635
  56.9725591  42.9156553  29.9278451  51.3036164  46.9715836  16.9814503
  51.4710567  47.8396072  17.3484974  51.1133333  47.1343118  16.0575792
  54.0611497  55.4332815  28.6480333  53.7612220  56.3357854  28.5396140
  53.7162557  55.1664998  29.5001486  47.5123979  51.8846612  24.6817037
  46.5874475  51.7522826  24.8894729  47.7608392  52.6640831  25.1786980
  57.4608641  47.9515355  26.3277770  56.5525518  47.8830764  26.0336531
  57.4096237  48.4287300  27.1559596  51.2825385  49.4273493  17.9661169
  51.1625010  49.8730544  18.8046650  50.5877973  49.7758811  17.4074708
  44.8732790  51.5279885  25.5160826  45.0025171  51.7814364  26.4300238
  44.1930241  52.1207593  25.1965482  49.0432277  62.1977135  21.6151301
  48.9656307  63.1484960  21.6939781  48.4393921  61.8523008  22.2726227
  51.5349507  49.3705001  34.2712668  50.7582841  49.9298921  34.2615532
  52.1740070  49.8561784  34.7927538  59.3270288  46.1531793  28.1055644
  58.6844668  46.4464327  27.4595439  58.8225216  46.0384714  28.9108841
  56.9810451  49.8994967  18.7941504  57.8928307  50.1322353  18.6189201
  56.4720098  50.4832011  18.2316582  55.2651219  54.3219594  32.4302796
  55.6734575  53.8802005  31.6857428  54.5428480  53.7472222  32.6836989
  51.6182289  49.2592201  29.8036353  52.4643484  49.6831615  29.9471002
  51.5580927  48.6025826  30.4974916  55.5880034  54.8820785  26.1855085
  54.9588896  55.0466499  25.4831153  55.2005696  55.2962395  26.9566049
  59.4669265  55.8175223  23.5399449  58.7820304  56.1974124  22.9896482
  59.5513115  56.4270550  24.2731396  54.7681734  46.9196570  31.4617527
  54.5242666  47.6738630  30.9251802  55.0441665  47.2981917  32.2964774
  56.7220197  53.4635182  30.1394792  56.9337092  54.1066942  29.4629173
  56.6749945  52.6297499  29.6716722  54.3246426  46.0753003  27.0431364
  53.4630905  46.3734256  27.3348102  54.3508861  46.2923402  26.1112397
  51.1407995  54.6195193  23.4505170  51.6046341  54.8982896  22.6609793
  50.8764793  53.7178638  23.2678261  48.0332076  54.1666675  26.3884933
  48.6033434  54.5953943  25.7502418  48.6240188  53.8849259  27.0869119
  50.0776881  50.7418346  20.2594735  50.7800925  51.1939389  20.7268662
  49.7457510  50.1002164  20.8874628  43.8202215  49.0001898  25.5611869
  43.0301269  49.2559427  25.0851979  44.3113463  49.8150236  25.6663909
  57.8366025  56.3407137  28.3117150  58.6583469  55.9387325  28.0299831
  57.8328428  56.2375372  29.2633265  45.7716961  49.3646477  22.5195345
  44.9748124  49.4765172  23.0378841  45.5442553  49.7033130  21.6536236
  51.6022628  55.8891181  30.4677860  51.6667061  56.3511588  31.3036032
  50.8933552  55.2588546  30.5960170  42.1039918  49.2532389  27.9926860
  42.3547957  50.1379399  28.2584436  42.6399467  49.0736990  27.2201951
  65.9272018  52.6845886  24.6602121  65.1735726  52.1153284  24.5046125
  66.0619559  52.6508550  25.6072756  51.3170646  57.5559288  20.3356840
  51.1816321  58.4010824  20.7641688  51.8580459  57.7578566  19.5722774
  47.8037986  43.6350868  36.9971196  47.4104931  43.0817067  37.6718840
  48.6204126  43.9461447  37.3877713  44.7700043  55.0734726  20.9084766
  45.2824564  55.8677976  21.0590330  45.4222756  54.3761017  20.8418367
  46.5794928  58.1900483  22.9907519  46.7561556  59.1118447  22.8028503
  47.3751762  57.8758902  23.4201898  50.7205947  45.0508747  34.5891452
  51.4615660  45.6515900  34.5095915  50.9523870  44.3086385  34.0309495
  45.8647285  50.2365114  32.8669682  45.7500800  49.3350372  33.1676781
  45.0091802  50.4828811  32.5154498  52.9439122  58.1782855  34.4657183
  52.5002977  57.3919233  34.1478087  53.6056336  58.3662005  33.8001073
  47.7026244  59.7078656  28.9917861  48.2533669  59.5795720  28.2194855
  46.8637720  60.0073545  28.6412754  42.7348960  53.4023381  21.6844336
  43.5724182  53.8120389  21.4678044  42.9127228  52.4622823  21.6544530
  54.6313392  51.0698461  17.3728169  54.1160016  51.8403066  17.6116556
  54.3590701  50.3963597  17.9961230  52.2160503  45.9148162  22.4313407
  51.3602100  45.5255012  22.2519046  52.6287455  45.9940123  21.5713193
  53.7459650  43.4494505  26.8304967  53.2424446  43.4124640  26.0172772
  54.0390257  44.3587248  26.8901624  49.9902536  43.5333235  25.8371149
  50.8555533  43.3376044  25.4777038  50.0580045  43.3043587  26.7640506
  59.6047666  53.8230816  19.3081342  58.8277109  53.4841975  18.8636505
  60.2839147  53.8283439  18.6336308  54.4199696  48.9425553  19.1987950
  54.1149831  49.2571702  20.0498093  55.3730138  49.0206973  19.2415283
  52.8646127  55.1015777  20.8480904  52.3367489  54.3668536  20.5354142
  52.3633630  55.8790453  20.6020872  57.8438973  53.2964797  25.9647950
  57.1862648  53.9864058  26.0528079  58.6479373  53.6861229  26.3081937
  47.5964855  45.7635443  23.2087516  48.1708607  45.5410624  22.4760709
  48.1835837  45.8324137  23.9616117  56.6544432  51.6509170  24.0151892
  57.1676314  52.2839162  24.5173602  57.3045656  51.0510365  23.6495252
  47.9234442  47.7939904  17.2283401  47.0871754  48.1314590  17.5492676
  47.7839212  47.6588884  16.2910538  49.8987523  42.6376692  21.9362585
  49.2451935  42.3225709  21.3119200  49.8567997  42.0152432  22.6622408
  51.0098728  52.9195987  13.8515877  50.1025789  52.6885240  14.0507026
  51.5069760  52.1233606  14.0389859  53.9166806  61.6293494  16.7712563
  53.2428505  61.9325191  17.3797521  54.3032628  62.4322574  16.4218020
  53.1325263  49.1258625  26.2610233  52.2147824  49.3473572  26.1031921
  53.5485407  49.2004936  25.4021940  53.9160311  50.5250041  21.3912913
  54.6632130  51.0371438  21.0820035  54.1851900  50.2034094  22.2517307
  52.1886961  53.0208582  18.3739867  51.2798180  52.7367615  18.4712337
  52.2182045  53.4407660  17.5143174  57.4206228  56.6315171  22.1431035
  56.9668556  55.7906081  22.1996225  56.7900195  57.2676570  22.4805815
  56.3639148  47.5607157  23.3731702  55.6261905  47.0484543  23.7041945
  56.6165921  47.1207539  22.5614979  55.8639168  58.4691668  23.0780853
  56.1562142  59.0296725  22.3593219  56.3737788  58.7620229  23.8334012
  42.7575131  50.7414096  22.3555069  42.5599531  50.1483457  21.6306136
  42.2021795  50.4366306  23.0731008  50.7371855  50.6337202  24.4749663
  50.7920465  49.6811039  24.3992139  49.9263057  50.7896641  24.9590961
  51.8863049  54.5617325  15.7127946  51.4482479  53.8453184  15.2533583
  52.6273490  54.7893440  15.1513037  48.6764215  49.2514262  22.2340041
  47.8632080  49.5508433  22.6405234  49.1723209  48.8569951  22.9514524
  50.8272793  59.2472019  24.1674306  50.7848972  59.4732865  23.2382838
  51.7435492  59.0135394  24.3160107  54.2738427  49.7156087  31.0654935
  54.6287814  49.9427560  31.9249401  54.9210558  50.0474463  30.4432191
  60.0036164  52.8374522  21.7704264  59.8654062  53.0276118  20.8425454
  59.6472382  53.5993905  22.2272316  48.1678290  46.8232618  27.8501276
  48.8077669  46.6821377  27.1524240  47.3355820  46.5367131  27.4739878
  60.0305543  54.9051049  26.7815536  60.4642050  54.8126339  27.6298590
  60.7437124  54.8808550  26.1435552  48.9438594  56.1235048  23.9636269
  49.7379192  55.6285368  23.7618844  48.2330286  55.5952911  23.6003974
  53.7633438  58.5053144  28.3148637  53.8170460  59.0744080  29.0826352
  52.8948219  58.6755029  27.9502674  45.2521357  50.2678130  20.0396022
  44.3218945  50.2062585  20.2565984  45.3478829  49.7454083  19.2432663
  45.1706906  46.7932943  22.6274263  45.4313723  47.7078276  22.5183424
  45.9924078  46.3257385  22.7770876  46.6431831  48.2070700  29.7973088
  47.3154885  47.9988062  29.1485737  45.8161618  48.0092786  29.3578320
  60.8921093  54.9474750  29.3148421  61.0856983  55.8520561  29.5607696
  60.7921711  54.4882169  30.1487006  52.5457403  44.8332641  31.8138749
  51.8985319  45.5322590  31.7203225  53.3158419  45.2668785  32.1814997
  52.7221538  52.6713406  29.8735568  53.6513598  52.8224565  29.7004536
  52.3012568  52.7597426  29.0184215  51.5209870  56.6964070  27.6434106
  51.3820955  56.3282854  28.5160044  50.7324466  57.2111709  27.4718064
  52.1158022  61.7973166  18.9859643  52.2909777  61.3261210  19.8005265
  51.4290810  62.4238933  19.2140903  53.0715085  56.0745673  25.0322944
  52.7364917  56.0346443  25.9280594  52.5719030  55.4090389  24.5593354
  47.0459329  51.4813303  30.5575525  46.9079127  50.7493542  31.1587064
  47.9564252  51.3922203  30.2759713  56.0074276  53.4201707  15.3060003
  55.3903447  52.6948535  15.2093056  55.5390765  54.1811067  14.9627078
  49.6741629  51.1933262  30.0459205  50.3841248  50.5526454  30.0045823
  49.6310938  51.4446157  30.9685385  57.6628408  58.1300615  32.9665784
  57.6040954  57.4459836  32.2996367  58.0647926  58.8719605  32.5146410
  48.3870563  48.1798480  31.8654844  47.8507920  47.7289218  32.5176440
  47.7987272  48.3144389  31.1225308  46.6819107  64.9462529  25.7599503
  46.9215705  65.5781053  26.4378521  45.8388303  64.5950569  26.0464862
  47.7972822  47.6387131  14.4281308  46.9202289  47.5175932  14.0643554
  48.2730575  46.8473210  14.1760196  57.6645815  56.0940199  31.1979763
  56.7772594  55.7566121  31.3206162  58.2344366  55.3623231  31.4348529
  39.3174962  52.4264291  24.5222815  40.0046002  52.1126021  23.9343830
  39.1623091  53.3305656  24.2490066  44.1209685  47.3154488  28.9507839
  44.0367873  46.7080157  28.2158248  43.2992391  47.8063506  28.9517335
  51.1946969  60.7541652  28.1641007  51.1217140  61.5596623  28.6760311
  50.7524362  60.9533617  27.3389028  50.9836748  59.9913422  21.6743828
  50.2004270  60.5335102  21.7682053  51.6829494  60.5087401  22.0738069
  54.2933398  45.8008051  24.3178034  54.7902098  45.0478013  23.9979104
  53.5220380  45.8372368  23.7521243  62.1463156  51.5048417  25.9596325
  62.1353032  52.3873132  25.5890258  61.2780535  51.1519968  25.7650862
  53.6545652  60.6528486  30.3199165  54.3673624  61.2875951  30.2475067
  53.1635681  60.7492352  29.5039167  55.3763179  54.5579738  21.8916457
  54.4419458  54.6781201  21.7221161  55.5539848  53.6552205  21.6276467
  50.8768367  47.9425434  24.0449718  50.5066155  47.3896475  24.7330624
  51.3727460  47.3383568  23.4924718  58.7635730  50.3997058  22.4266491
  59.2296183  51.2325049  22.3526794  59.2143231  49.9342039  23.1311750
  48.7057566  58.4022929  31.1404736  49.4067025  59.0359412  31.2934130
  48.2352681  58.7437661  30.3800375  56.8311962  56.7440879  19.4252643
  57.1071806  56.6297474  20.3346517  55.9616460  56.3458364  19.3864816
  56.5058852  50.9567537  28.9657287  55.8530302  51.2043444  28.3109739
  56.8839232  50.1431675  28.6319764  53.4666026  60.9927230  23.0685457
  53.6488420  60.1748886  23.5313209  54.2899012  61.2094922  22.6310347
  53.8008191  59.9195415  20.3300505  54.3295958  59.4087870  19.7170667
  54.0636411  59.6037945  21.1946038  44.3025284  57.9359284  28.0735839
  44.8878721  57.1902972  28.2063743  44.1050122  58.2463241  28.9572503
  47.1563939  60.9710532  23.0898281  46.4874314  61.4556659  22.6062321
  47.0176809  61.2179752  24.0041660  38.8942939  50.5064884  26.7940282
  38.9327038  49.9728475  27.5877400  38.3883231  49.9800090  26.1751259
  51.2969208  63.0054275  29.6880940  51.8487516  63.1685897  30.4530025
  51.6375401  63.5958713  29.0160964  46.2733701  45.3529425  30.2902824
  46.3375027  46.2144256  29.8780222  46.2100821  44.7403427  29.5575183
  45.7485973  47.4252557  33.9375859  46.3758012  47.0429635  34.5513383
  44.8913892  47.2066759  34.3031551  42.5251516  49.2328987  19.8694213
  42.8204957  48.3239665  19.8161267  41.6239552  49.2116726  19.5475216
  54.4337595  60.9536251  26.6744622  54.3088734  60.1525991  26.1655567
  55.0916686  61.4482444  26.1858592  46.0545763  47.3084983  25.8521762
  45.3332349  47.9220951  25.7129235  46.8439019  47.8442748  25.7738408
  56.4972503  58.7545271  28.3024172  55.5502839  58.6350622  28.2302499
  56.8455276  57.8667769  28.3850433  48.8572077  44.6439410  32.1262414
  49.3806478  44.8901706  32.8888723  48.6384410  45.4759444  31.7065551
  44.2539358  46.9143084  19.9933539  43.9252064  46.0340463  19.8108644
  44.6078728  46.8590753  20.8809928  53.5018937  58.5497987  24.5028524
  53.3543899  57.6214694  24.6836094  54.3272430  58.5718078  24.0185599
  47.3681181  47.2016054  20.3609016  47.7077253  47.7301975  19.6387625
  47.8153301  47.5396460  21.1367583  57.1053058  59.3726546  25.5893397
  58.0299606  59.1669407  25.4517848  56.9368362  59.1242947  26.4982738
  50.0624622  45.5853105  29.8112084  49.7221442  44.7860918  30.2132764
  49.3563628  45.8854816  29.2388917  50.7141094  42.6702417  28.2639407
  51.5367163  42.1962895  28.1418298  50.9579157  43.4492901  28.7638094
  49.3549328  45.6990676  18.5602309  50.0757691  46.0771928  18.0566026
  48.7314632  46.4179552  18.6637287  53.4980451  46.4035825  19.4960641
  53.7144065  47.2860462  19.1949469  53.0174518  46.0122038  18.7666283
  48.2379672  49.3621538  26.0731386  48.0924253  49.6761841  26.9655667
  47.7604876  49.9806438  25.5202285  50.0976055  46.3524086  26.1212275
  50.0837624  45.4565179  25.7844573  50.8148483  46.3594750  26.7550562
  51.9502186  46.7861426  28.1665403  51.6919964  47.7078497  28.1649733
  51.4187226  46.3891861  28.8565867  56.8948375  59.8912213  20.9455488
  57.0685252  59.3258636  20.1929341  57.3877266  60.6913108  20.7634978
  42.7125334  51.9026882  29.0119047  42.1678803  52.6786690  29.1439321
  43.5904684  52.2497687  28.8538169  49.5012951  45.2338466  21.3899846
  49.6228862  44.3055112  21.5890733  49.2114993  45.2477152  20.4778161
  52.3704142  42.9193377  24.5266565  52.3925838  42.9832710  23.5718545
  52.7872201  42.0797885  24.7207072  62.7487766  52.6548636  22.5645788
  63.1918912  51.9055961  22.1664911  61.8714276  52.6458772  22.1819520
  57.8823547  59.2078978  18.0452387  58.5774452  59.8285670  18.2639701
  58.2246697  58.3574329  18.3204764  43.4991356  51.0296778  31.9049204
  42.7573092  51.1779414  32.4913834  43.1784101  51.2905044  31.0415953
  59.7814970  56.6578683  19.5739717  60.3066294  56.9965956  18.8489037
  59.6937323  55.7225698  19.3902852  51.4435019  60.5712757  31.7029594
  51.7522145  60.3261903  32.5752294  52.2410501  60.7759395  31.2148464
  51.4655631  62.7250666  23.9334971  51.0260621  62.2327045  24.6267827
  52.2163748  62.1823634  23.6927046  43.9447970  58.9162207  23.9359599
  44.7705990  58.6165979  23.5558242  43.5942022  58.1469830  24.3849387
  48.9129503  58.2688675  26.0057272  48.2909512  57.6059380  25.7059500
  49.5834370  58.2949807  25.3230920  42.1456575  56.8348534  24.8948532
  41.3088483  56.4070708  24.7132533  42.1180220  57.0280977  25.8319323
  59.5906751  54.1404053  32.1923644  59.6404756  53.9754061  33.1339167
  59.4820675  53.2731312  31.8021525  48.4743010  56.8192599  19.4815733
  48.6231130  57.5028063  18.8282405  49.2809454  56.7997689  19.9965188
  56.8810514  50.1234981  33.5082951  57.7820377  49.9841446  33.2166948
  56.9558488  50.2889436  34.4481128  51.2153319  47.5001836  32.3536137
  50.3456629  47.7935402  32.0818725  51.4512799  48.0842281  33.0743400
  61.0924948  56.5600995  32.4365665  60.8009757  56.9230975  33.2729126
  60.4797079  55.8468003  32.2578997  62.2920631  54.1253874  24.9568236
  63.1267522  54.5643678  25.1205796  62.4279759  53.6492528  24.1376481
  59.3412136  51.6833609  30.9045723  59.8166258  51.8761256  30.0964575
  58.4177702  51.7392795  30.6589107  46.2295643  52.8457776  20.4876802
  45.9841685  51.9420106  20.6857012  46.3991558  52.8474927  19.5456280
  53.9192353  43.7181453  29.8701557  54.4374297  44.4542480  29.5448046
  53.5647486  44.0245446  30.7048316  45.4991291  48.5786134  17.9862963
  44.8060536  48.6530489  17.3302999  45.2543042  47.8146478  18.5084480
  51.9738416  59.3140729  16.9527480  51.4012383  59.9330916  16.4997952
  52.5471209  59.8640091  17.4867402  58.0413805  48.5599369  29.1374029
  58.9931228  48.6597467  29.1586253  57.8717256  47.7677638  29.6472113
  55.1935675  59.5977879  18.0836062  56.1266349  59.5323441  18.2868938
  55.1058888  60.4334146  17.6250595  57.8223692  58.9143750  15.0440010
  57.7437324  58.5803613  15.9375768  58.6433359  59.4065518  15.0431482
  60.5201883  51.7805489  28.2516329  60.4878203  50.8421490  28.4376012
  61.1302507  51.8589526  27.5182153  52.3585214  50.6501542  14.2943533
  53.3044319  50.5207750  14.3631951  51.9799459  49.9116204  14.7712961
  60.6696372  48.5716532  28.2974612  60.1535420  47.7874989  28.1104541
  61.5536320  48.2435249  28.4621131  66.3378433  52.8421496  27.3922365
  67.0681822  52.5806784  27.9530069  65.7285379  52.1050218  27.4324433
  64.4193730  50.9829358  27.9896817  63.6926894  50.8485323  27.3813308
  64.0041017  51.2906187  28.7953535  50.5428131  48.5751518  14.2298418
  49.6359587  48.2784631  14.3061131  50.8204112  48.2781336  13.3632704
  41.4606072  49.8957882  24.6797464  41.1408856  49.0423190  24.3871838
  40.9139500  50.1106460  25.4355432  45.2385979  52.6120323  28.3966971
  45.4571989  53.5437431  28.4155005  45.6511753  52.2528297  29.1821775
  52.1590197  43.1188408  20.3842659  51.3490925  42.7735493  20.7597905
  52.8474614  42.8095952  20.9730271  54.0880745  42.1966455  22.0066956
  54.6411784  42.6161908  22.6656979  54.3250832  41.2702203  22.0489912
  49.3126916  45.4338454  14.3710397  50.1746080  45.7593352  14.6306214
  49.4977260  44.6469949  13.8583463  41.3294332  53.5160793  26.6490586
  40.6357803  53.1014746  26.1360540  42.0767323  53.5581330  26.0524005
  55.9163119  43.7072038  23.7166940  56.4162897  43.8188572  22.9081259
  56.5598727  43.4033091  24.3567749  43.2431074  53.4479047  24.5256601
  43.2201762  53.5466734  23.5738484  43.5531711  54.2944198  24.8473767
  45.9018452  55.5055202  28.6403215  46.8561706  55.4739144  28.5733147
  45.7030976  55.0445826  29.4553441  46.4917834  54.0756318  31.2074013
  47.3110723  54.5700397  31.2308850  46.7654642  53.1588286  31.1791580
  56.2484430  46.4667070  20.5701968  55.3610285  46.7516721  20.3522163
  56.6638419  46.3060834  19.7229245  44.2568681  61.0474822  25.6573413
  44.1223149  60.2875222  25.0911411  43.8400743  61.7715721  25.1902202
  55.3927644  56.2311745  14.6649988  56.0963494  56.4361748  15.2807644
  54.6690293  56.7988507  14.9299072  56.2225454  51.9821606  20.7852258
  56.1660656  52.4390158  19.9459891  56.7753797  51.2212291  20.6075101
  60.0330260  47.7711338  21.6102378  59.7767194  47.3707974  22.4410586
  59.4083128  48.4855132  21.4852517  64.3442598  50.5107411  24.1173669
  63.7842156  50.5800601  24.8905231  63.7386101  50.3348396  23.3973166
  47.4137807  61.9444139  25.8691856  47.2970191  62.8889571  25.7670546
  46.5930253  61.6417700  26.2577655  57.3014341  56.6694274  16.7148448
  58.1359945  56.2375473  16.5325923  57.1398684  56.4976288  17.6425343
  56.9560233  53.1726388  18.0804788  56.9009037  53.0070659  17.1393232
  56.3306289  53.8802421  18.2366977  41.7452748  48.4094452  31.9066210
  42.3911612  47.8993406  32.3953435  41.5369900  49.1463134  32.4809635
  50.2656359  42.6734497  17.6590106  50.2535029  43.6176337  17.8158377
  51.1579781  42.4904642  17.3649567  48.4392321  62.5972400  29.0847784
  49.3419568  62.6296011  29.4014279  48.2129691  61.6672851  29.0994120
  50.1945923  61.3503387  25.7457863  49.2441554  61.3505249  25.6322235
  50.4978409  60.6036122  25.2293897  54.0808478  39.2677273  21.9136043
  53.3140874  38.7135760  22.0592725  54.4919183  39.3399142  22.7750194
  65.9298616  67.1863925  26.8103625  66.5677026  67.0670673  26.1066965
  65.8119459  68.1344769  26.8691577  62.7388323  67.1391354  26.7465150
  62.4006834  67.0232418  25.8585685  63.6078091  66.7382519  26.7266156
  58.5975138  68.9926830  22.7362041  58.0340003  68.9016767  21.9678329
  58.4827533  68.1726734  23.2164533  63.2208106  68.2926205  32.7051355
  63.2096746  67.8979004  31.8331859  63.3828745  67.5592278  33.2985127
  56.1439570  70.4878022  25.5746261  56.9360862  70.1468846  25.1592561
  56.3836220  70.5972997  26.4948415  64.1774697  72.6597798  18.0476506
  63.5262677  73.2451878  17.6610519  64.9719060  73.1903993  18.1071543
  58.1030324  69.7486935  18.4463640  58.8761200  69.2015922  18.3076516
  58.4555723  70.6131184  18.6578101  59.9415367  71.0763317  31.6530539
  59.6505233  71.9808948  31.5377206  60.5772351  71.1179845  32.3674609
  60.8671574  68.4540166  28.2431899  61.4635146  68.2296188  27.5288862
  60.9246545  67.7124911  28.8457347  60.4396602  65.9079601  16.0782090
  60.6922123  65.3861122  15.3165553  59.5021161  65.7445746  16.1808774
  65.4839885  64.9115379  23.8856833  66.2702974  64.4934802  23.5347250
  65.7478589  65.8161471  24.0538482  65.6549962  70.3488230  18.5845490
  65.0195795  70.4222856  19.2966395  65.3247369  70.9381828  17.9064569
  70.8848312  64.8490612  24.7889812  71.6173484  64.2789829  25.0227641
  70.1287668  64.4612213  25.2296317  60.1592891  67.8107707  18.2806465
  60.0429149  67.1352610  18.9487549  60.2695151  67.3240081  17.4638618
  62.5024432  67.2717854  21.9853154  62.1382639  66.7448475  22.6966076
  63.3591548  66.8816323  21.8119640  68.4073732  58.5612187  29.2484420
  68.0757057  59.4307598  29.0245635  67.8119346  58.2448471  29.9278451
  62.1429919  62.3007754  16.9814503  62.3104321  63.1687990  17.3484974
  61.9527088  62.4635035  16.0575792  64.9005252  70.7624733  28.6480333
  64.6005975  71.6649771  28.5396140  64.5556311  70.4956916  29.5001486
  58.3517733  67.2138529  24.6817037  57.4268230  67.0814744  24.8894729
  58.6002147  67.9932749  25.1786980  68.3002396  63.2807273  26.3277770
  67.3919273  63.2122681  26.0336531  68.2489991  63.7579218  27.1559596
  62.1219140  64.7565411  17.9661169  62.0018765  65.2022462  18.8046650
  61.4271728  65.1050729  17.4074708  55.7126544  66.8571803  25.5160826
  55.8418926  67.1106282  26.4300238  55.0323996  67.4499511  25.1965482
  59.8826032  77.5269053  21.6151301  59.8050061  78.4776878  21.6939781
  59.2787675  77.1814925  22.2726227  62.3743261  64.6996918  34.2712668
  61.5976595  65.2590838  34.2615532  63.0133824  65.1853701  34.7927538
  70.1664042  61.4823711  28.1055644  69.5238422  61.7756244  27.4595439
  69.6618971  61.3676631  28.9108841  67.8204206  65.2286884  18.7941504
  68.7322062  65.4614271  18.6189201  67.3113853  65.8123929  18.2316582
  60.6289634  67.5082372  33.8330635  61.3704318  68.0467416  33.5565458
  59.9226619  68.1348660  33.9902186  66.1044973  69.6511512  32.4302796
  66.5128329  69.2093923  31.6857428  65.3822235  69.0764140  32.6836989
  62.4576043  64.5884119  29.8036353  63.3037239  65.0123532  29.9471002
  62.3974681  63.9317743  30.4974916  66.4273788  70.2112703  26.1855085
  65.7982650  70.3758417  25.4831153  66.0399450  70.6254312  26.9566049
  70.3063020  71.1467141  23.5399449  69.6214058  71.5266042  22.9896482
  70.3906869  71.7562467  24.2731396  65.6075489  62.2488487  31.4617527
  65.3636421  63.0030548  30.9251802  65.8835419  62.6273835  32.2964774
  67.5613951  68.7927100  30.1394792  67.7730847  69.4358860  29.4629173
  67.5143700  67.9589416  29.6716722  65.1640180  61.4044920  27.0431364
  64.3024659  61.7026174  27.3348102  65.1902615  61.6215319  26.1112397
  61.9801750  69.9487111  23.4505170  62.4440095  70.2274814  22.6609793
  61.7158548  69.0470555  23.2678261  58.8725831  69.4958592  26.3884933
  59.4427188  69.9245861  25.7502418  59.4633943  69.2141177  27.0869119
  60.9170636  66.0710263  20.2594735  61.6194679  66.5231307  20.7268662
  60.5851264  65.4294082  20.8874628  59.3650997  64.6622020  34.6345945
  58.7349658  65.3438301  34.8681341  59.2587085  64.5505101  33.6899083
  54.6595970  64.3293816  25.5611869  53.8695024  64.5851344  25.0851979
  55.1507217  65.1442154  25.6663909  68.6759779  71.6699055  28.3117150
  69.4977223  71.2679242  28.0299831  68.6722182  71.5667289  29.2633265
  56.6110715  64.6938395  22.5195345  55.8141879  64.8057089  23.0378841
  56.3836307  65.0325047  21.6536236  62.4416383  71.2183098  30.4677860
  62.5060815  71.6803506  31.3036032  61.7327307  70.5880463  30.5960170
  52.9433673  64.5824306  27.9926860  53.1941711  65.4671316  28.2584436
  53.4793221  64.4028908  27.2201951  76.7665772  68.0137804  24.6602121
  76.0129481  67.4445202  24.5046125  76.9013314  67.9800468  25.6072756
  62.1564401  72.8851206  20.3356840  62.0210075  73.7302742  20.7641688
  62.6974213  73.0870484  19.5722774  55.6093798  70.4026644  20.9084766
  56.1218319  71.1969894  21.0590330  56.2616511  69.7052934  20.8418367
  57.4188683  73.5192400  22.9907519  57.5955311  74.4410365  22.8028503
  58.2145516  73.2050819  23.4201898  61.5599701  60.3800665  34.5891452
  62.3009415  60.9807818  34.5095915  61.7917624  59.6378303  34.0309495
  56.7041039  65.5657032  32.8669682  56.5894554  64.6642289  33.1676781
  55.8485557  65.8120729  32.5154498  63.7832877  73.5074772  34.4657183
  63.3396731  72.7211151  34.1478087  64.4450091  73.6953923  33.8001073
  58.5419998  75.0370574  28.9917861  59.0927423  74.9087637  28.2194855
  57.7031474  75.3365463  28.6412754  65.8814115  73.7877572  32.4938584
  65.8632590  74.6086453  32.0018853  66.8034035  73.6631648  32.7188725
  62.3387169  71.3021702  33.3362092  62.8715506  70.5409990  33.1061400
  61.8101250  71.0095354  34.0786247  65.5056864  56.4081768  28.8655734
  65.1621134  57.2983409  28.7894844  65.8735827  56.2183425  28.0025319
  53.5742715  68.7315298  21.6844336  54.4117937  69.1412307  21.4678044
  53.7520982  67.7914740  21.6544530  65.4707147  66.3990379  17.3728169
  64.9553770  67.1694983  17.6116556  65.1984455  65.7255515  17.9961230
  63.0554258  61.2440080  22.4313407  62.1995854  60.8546930  22.2519046
  63.4681210  61.3232040  21.5713193  64.5853405  58.7786423  26.8304967
  64.0818200  58.7416558  26.0172772  64.8784011  59.6879166  26.8901624
  60.8296290  58.8625153  25.8371149  61.6949287  58.6667961  25.4777038
  60.8973799  58.6335504  26.7640506  70.4441421  69.1522734  19.3081342
  69.6670864  68.8133893  18.8636505  71.1232902  69.1575357  18.6336308
  65.2593450  64.2717471  19.1987950  64.9543586  64.5863620  20.0498093
  66.2123892  64.3498891  19.2415283  63.7039882  70.4307694  20.8480904
  63.1761243  69.6960454  20.5354142  63.2027385  71.2082371  20.6020872
  68.6832728  68.6256715  25.9647950  68.0256402  69.3155976  26.0528079
  69.4873127  69.0153147  26.3081937  58.4358609  61.0927361  23.2087516
  59.0102361  60.8702542  22.4760709  59.0229592  61.1616055  23.9616117
  67.4938187  66.9801087  24.0151892  68.0070068  67.6131079  24.5173602
  68.1439411  66.3802283  23.6495252  58.7628197  63.1231822  17.2283401
  57.9265509  63.4606508  17.5492676  58.6232966  62.9880801  16.2910538
  60.7381277  57.9668609  21.9362585  60.0845690  57.6517627  21.3119200
  60.6961751  57.3444350  22.6622408  61.8492482  68.2487905  13.8515877
  60.9419544  68.0177158  14.0507026  62.3463514  67.4525524  14.0389859
  64.7560561  76.9585412  16.7712563  64.0822260  77.2617108  17.3797521
  65.1426383  77.7614492  16.4218020  63.9719018  64.4550543  26.2610233
  63.0541579  64.6765490  26.1031921  64.3879161  64.5296853  25.4021940
  64.7554065  65.8541959  21.3912913  65.5025884  66.3663356  21.0820035
  65.0245655  65.5326011  22.2517307  63.0280715  68.3500499  18.3739867
  62.1191935  68.0659532  18.4712337  63.0575799  68.7699578  17.5143174
  68.2599983  71.9607089  22.1431035  67.8062310  71.1197999  22.1996225
  67.6293950  72.5968487  22.4805815  67.2032902  62.8899075  23.3731702
  66.4655659  62.3776461  23.7041945  67.4559676  62.4499457  22.5614979
  66.7032922  73.7983586  23.0780853  66.9955897  74.3588643  22.3593219
  67.2131543  74.0912147  23.8334012  67.3044530  55.6675327  23.9673472
  67.6103407  54.8072690  23.6799387  68.0297135  56.2592947  23.7672465
  53.5968886  66.0706014  22.3555069  53.3993286  65.4775374  21.6306136
  53.0415550  65.7658224  23.0731008  61.5765610  65.9629120  24.4749663
  61.6314219  65.0102956  24.3992139  60.7656812  66.1188559  24.9590961
  62.7256803  69.8909243  15.7127946  62.2876233  69.1745102  15.2533583
  63.4667244  70.1185358  15.1513037  59.5157969  64.5806180  22.2340041
  58.7025835  64.8800350  22.6405234  60.0116964  64.1861869  22.9514524
  61.6666547  74.5763937  24.1674306  61.6242726  74.8024783  23.2382838
  62.5829246  74.3427311  24.3160107  65.1132181  65.0448004  31.0654935
  65.4681569  65.2719477  31.9249401  65.7604312  65.3766381  30.4432191
  70.8429918  68.1666440  21.7704264  70.7047817  68.3568036  20.8425454
  70.4866137  68.9285823  22.2272316  59.0072044  62.1524535  27.8501276
  59.6471424  62.0113294  27.1524240  58.1749575  61.8659049  27.4739878
  70.8699298  70.2342967  26.7815536  71.3035804  70.1418256  27.6298590
  71.5830878  70.2100468  26.1435552  59.7832348  71.4526966  23.9636269
  60.5772947  70.9577286  23.7618844  59.0724040  70.9244829  23.6003974
  64.6027193  73.8345061  28.3148637  64.6564215  74.4035998  29.0826352
  63.7341974  74.0046946  27.9502674  56.0915112  65.5970047  20.0396022
  55.1612700  65.5354503  20.2565984  56.1872584  65.0746000  19.2432663
  56.0100661  62.1224860  22.6274263  56.2707478  63.0370194  22.5183424
  56.8317833  61.6549303  22.7770876  57.4825586  63.5362617  29.7973088
  58.1548639  63.3279980  29.1485737  56.6555372  63.3384703  29.3578320
  71.7314847  70.2766668  29.3148421  71.9250737  71.1812478  29.5607696
  71.6315465  69.8174087  30.1487006  63.3851158  60.1624558  31.8138749
  62.7379073  60.8614508  31.7203225  64.1552173  60.5960702  32.1814997
  66.7929956  70.4273411  34.8889302  66.6415462  70.1983962  33.9719386
  66.7834635  71.3844012  34.9020647  63.5615292  68.0005323  29.8735568
  64.4907352  68.1516483  29.7004536  63.1406322  68.0889344  29.0184215
  62.3603624  72.0255988  27.6434106  62.2214710  71.6574772  28.5160044
  61.5718220  72.5403627  27.4718064  62.9551776  77.1265084  18.9859643
  63.1303532  76.6553127  19.8005265  62.2684564  77.7530850  19.2140903
  63.9108839  71.4037590  25.0322944  63.5758672  71.3638360  25.9280594
  63.4112785  70.7382306  24.5593354  57.8853083  66.8105220  30.5575525
  57.7472881  66.0785459  31.1587064  58.7958007  66.7214121  30.2759713
  66.8468031  68.7493625  15.3060003  66.2297202  68.0240453  15.2093056
  66.3784519  69.5102985  14.9627078  60.5135384  66.5225180  30.0459205
  61.2235002  65.8818372  30.0045823  60.4704692  66.7738075  30.9685385
  68.5022163  73.4592533  32.9665784  68.4434709  72.7751753  32.2996367
  68.9041681  74.2011523  32.5146410  59.2264318  63.5090398  31.8654844
  58.6901675  63.0581136  32.5176440  58.6381026  63.6436306  31.1225308
  57.5212861  80.2754447  25.7599503  57.7609460  80.9072971  26.4378521
  56.6782058  79.9242487  26.0464862  58.6366577  62.9679049  14.4281308
  57.7596043  62.8467850  14.0643554  59.1124330  62.1765127  14.1760196
  68.5039570  71.4232117  31.1979763  67.6166349  71.0858039  31.3206162
  69.0738121  70.6915148  31.4348529  50.1568717  67.7556209  24.5222815
  50.8439757  67.4417939  23.9343830  50.0016846  68.6597573  24.2490066
  54.9603439  62.6446405  28.9507839  54.8761628  62.0372075  28.2158248
  54.1386145  63.1355424  28.9517335  62.0340723  76.0833569  28.1641007
  61.9610895  76.8888541  28.6760311  61.5918116  76.2825535  27.3389028
  61.8230503  75.3205339  21.6743828  61.0398025  75.8627020  21.7682053
  62.5223248  75.8379319  22.0738069  65.1327153  61.1299969  24.3178034
  65.6295852  60.3769931  23.9979104  64.3614134  61.1664285  23.7521243
  72.9856910  66.8340334  25.9596325  72.9746787  67.7165050  25.5890258
  72.1174290  66.4811885  25.7650862  64.4939407  75.9820403  30.3199165
  65.2067379  76.6167868  30.2475067  64.0029435  76.0784269  29.5039167
  66.2156934  69.8871656  21.8916457  65.2813212  70.0073119  21.7221161
  66.3933602  68.9844123  21.6276467  61.7162122  63.2717352  24.0449718
  61.3459909  62.7188392  24.7330624  62.2121214  62.6675485  23.4924718
  69.6029485  65.7288975  22.4266491  70.0689937  66.5616967  22.3526794
  70.0536985  65.2633957  23.1311750  59.5451320  73.7314847  31.1404736
  60.2460780  74.3651330  31.2934130  59.0746435  74.0729578  30.3800375
  67.6705716  72.0732797  19.4252643  67.9465560  71.9589391  20.3346517
  66.8010215  71.6750281  19.3864816  67.5746148  58.0969562  26.4657392
  66.6609228  58.3273789  26.6339599  68.0039249  58.1808006  27.3171425
  67.3452606  66.2859454  28.9657287  66.6924056  66.5335362  28.3109739
  67.7232986  65.4723592  28.6319764  64.3059780  76.3219147  23.0685457
  64.4882175  75.5040803  23.5313209  65.1292766  76.5386840  22.6310347
  64.6401946  75.2487333  20.3300505  65.1689712  74.7379787  19.7170667
  64.9030165  74.9329863  21.1946038  63.3940179  67.0279265  35.4523324
  62.7180816  66.9273395  36.1225699  64.2167813  66.8718479  35.9159321
  55.1419038  73.2651202  28.0735839  55.7272475  72.5194890  28.2063743
  54.9443877  73.5755159  28.9572503  57.9957694  76.3002449  23.0898281
  57.3268069  76.7848577  22.6062321  57.8570563  76.5471670  24.0041660
  49.7336693  65.8356802  26.7940282  49.7720793  65.3020393  27.5877400
  49.2276986  65.3092008  26.1751259  62.1362962  78.3346193  29.6880940
  62.6881270  78.4977814  30.4530025  62.4769156  78.9250631  29.0160964
  57.1127455  60.6821343  30.2902824  57.1768782  61.5436174  29.8780222
  57.0494576  60.0695344  29.5575183  56.5879728  62.7544475  33.9375859
  57.2151767  62.3721552  34.5513383  55.7307647  62.5358677  34.3031551
  66.9873836  73.1607450  35.5429594  67.5313740  73.7737409  35.0484549
  66.4060681  73.7187029  36.0596607  53.3645271  64.5620904  19.8694213
  53.6598712  63.6531583  19.8161267  52.4633306  64.5408644  19.5475216
  65.2731349  76.2828168  26.6744622  65.1482489  75.4817908  26.1655567
  65.9310441  76.7774362  26.1858592  56.8939518  62.6376901  25.8521762
  56.1726103  63.2512869  25.7129235  57.6832773  63.1734666  25.7738408
  67.3366258  74.0837188  28.3024172  66.3896593  73.9642540  28.2302499
  67.6849031  73.1959686  28.3850433  59.6965831  59.9731327  32.1262414
  60.2200233  60.2193624  32.8888723  59.4778164  60.8051362  31.7065551
  55.0933112  62.2435002  19.9933539  54.7645818  61.3632381  19.8108644
  55.4472483  62.1882671  20.8809928  64.3412691  73.8789905  24.5028524
  64.1937654  72.9506612  24.6836094  65.1666185  73.9009995  24.0185599
  58.2074935  62.5307972  20.3609016  58.5471008  63.0593893  19.6387625
  58.6547056  62.8688378  21.1367583  67.9446813  74.7018463  25.5893397
  68.8693360  74.4961325  25.4517848  67.7762116  74.4534865  26.4982738
  60.9018376  60.9145022  29.8112084  60.5615197  60.1152836  30.2132764
  60.1957382  61.2146733  29.2388917  61.5534848  57.9994335  28.2639407
  62.3760917  57.5254813  28.1418298  61.7972912  58.7784819  28.7638094
  60.1943083  61.0282593  18.5602309  60.9151445  61.4063846  18.0566026
  59.5708387  61.7471470  18.6637287  64.3374205  61.7327742  19.4960641
  64.5537820  62.6152380  19.1949469  63.8568273  61.3413956  18.7666283
  59.0773427  64.6913456  26.0731386  58.9318008  65.0053759  26.9655667
  58.5998630  65.3098356  25.5202285  60.9369810  61.6816003  26.1212275
  60.9231378  60.7857097  25.7844573  61.6542238  61.6886667  26.7550562
  62.7895940  62.1153344  28.1665403  62.5313718  63.0370414  28.1649733
  62.2580981  61.7183778  28.8565867  67.7342129  75.2204131  20.9455488
  67.9079007  74.6550553  20.1929341  68.2271020  76.0205026  20.7634978
  53.5519089  67.2318800  29.0119047  53.0072557  68.0078608  29.1439321
  54.4298439  67.5789604  28.8538169  60.3406706  60.5630384  21.3899846
  60.4622617  59.6347030  21.5890733  60.0508748  60.5769070  20.4778161
  63.2097896  58.2485294  24.5266565  63.2319593  58.3124627  23.5718545
  63.6265955  57.4089803  24.7207072  73.5881520  67.9840554  22.5645788
  74.0312666  67.2347879  22.1664911  72.7108031  67.9750690  22.1819520
  68.7217302  74.5370895  18.0452387  69.4168206  75.1577588  18.2639701
  69.0640452  73.6866246  18.3204764  54.3385111  66.3588696  31.9049204
  53.5966847  66.5071332  32.4913834  54.0177855  66.6196962  31.0415953
  70.6208725  71.9870601  19.5739717  71.1460049  72.3257874  18.8489037
  70.5331077  71.0517616  19.3902852  62.2828773  75.9004674  31.7029594
  62.5915900  75.6553821  32.5752294  63.0804255  76.1051313  31.2148464
  62.3049386  78.0542584  23.9334971  61.8654376  77.5618963  24.6267827
  63.0557502  77.5115552  23.6927046  54.7841724  74.2454125  23.9359599
  55.6099744  73.9457897  23.5558242  54.4335776  73.4761747  24.3849387
  59.7523258  73.5980593  26.0057272  59.1303267  72.9351298  25.7059500
  60.4228125  73.6241725  25.3230920  52.9850330  72.1640451  24.8948532
  52.1482238  71.7362626  24.7132533  52.9573975  72.3572895  25.8319323
  59.8247785  62.0762381  35.5989778  59.8735941  62.9524504  35.2167548
  60.3670299  61.5339774  35.0261421  70.3102631  72.6203504  34.8790915
  69.5198175  72.6027643  34.3395415  70.0735985  73.1591798  35.6339952
  70.4300506  69.4695971  32.1923644  70.4798511  69.3045978  33.1339167
  70.3214429  68.6023230  31.8021525  59.3136765  72.1484516  19.4815733
  59.4624885  72.8319981  18.8282405  60.1203208  72.1289607  19.9965188
  67.7204268  65.4526899  33.5082951  68.6214131  65.3133364  33.2166948
  67.7952243  65.6181354  34.4481128  62.0547074  62.8293754  32.3536137
  61.1850383  63.1227320  32.0818725  62.2906554  63.4134199  33.0743400
  71.9318703  71.8892912  32.4365665  71.6403511  72.2522893  33.2729126
  71.3190834  71.1759921  32.2578997  73.1314385  69.4545792  24.9568236
  73.9661276  69.8935596  25.1205796  73.2673514  68.9784445  24.1376481
  70.1805891  67.0125527  30.9045723  70.6560013  67.2053173  30.0964575
  69.2571456  67.0684713  30.6589107  57.0689398  68.1749694  20.4876802
  56.8235439  67.2712024  20.6857012  57.2385312  68.1766845  19.5456280
  64.7586107  59.0473370  29.8701557  65.2768051  59.7834397  29.5448046
  64.4041240  59.3537364  30.7048316  56.3385045  63.9078052  17.9862963
  55.6454290  63.9822407  17.3302999  56.0936797  63.1438395  18.5084480
  65.0098702  55.4673653  25.3902454  65.2900455  54.7996842  26.0162880
  65.7949309  55.6602749  24.8777118  62.8132170  74.6432647  16.9527480
  62.2406137  75.2622834  16.4997952  63.3864964  75.1932009  17.4867402
  68.8807560  63.8891287  29.1374029  69.8324983  63.9889385  29.1586253
  68.7111010  63.0969556  29.6472113  66.9021939  60.9746870  29.3233430
  66.3071872  61.2551883  28.6279918  66.6171636  61.4640771  30.0950171
  66.0329430  74.9269797  18.0836062  66.9660103  74.8615359  18.2868938
  65.9452643  75.7626064  17.6250595  68.6617447  74.2435667  15.0440010
  68.5831078  73.9095531  15.9375768  69.4827113  74.7357435  15.0431482
  71.3595638  67.1097407  28.2516329  71.3271958  66.1713407  28.4376012
  71.9696261  67.1881443  27.5182153  63.1978969  65.9793460  14.2943533
  64.1438073  65.8499668  14.3631951  62.8193214  65.2408122  14.7712961
  71.5090126  63.9008450  28.2974612  70.9929175  63.1166907  28.1104541
  72.3930075  63.5727167  28.4621131  69.1700853  57.6449466  24.2570424
  68.9725674  57.3364554  25.1413756  69.7800559  58.3711105  24.3868354
  77.1772188  68.1713414  27.3922365  77.9075576  67.9098702  27.9530069
  76.5679133  67.4342135  27.4324433  75.2587485  66.3121276  27.9896817
  74.5320648  66.1777241  27.3813308  74.8434772  66.6198105  28.7953535
  63.0817661  70.0311206  35.7544190  64.0020671  70.2089805  35.9484236
  63.0467244  69.0867251  35.6023889  61.3821886  63.9043436  14.2298418
  60.4753341  63.6076549  14.3061131  61.6597867  63.6073254  13.3632704
  52.2999826  65.2249799  24.6797464  51.9802610  64.3715108  24.3871838
  51.7533254  65.4398378  25.4355432  56.0779734  67.9412240  28.3966971
  56.2965743  68.8729348  28.4155005  56.4905507  67.5820215  29.1821775
  62.9983951  58.4480326  20.3842659  62.1884680  58.1027411  20.7597905
  63.6868368  58.1387869  20.9730271  64.9274500  57.5258373  22.0066956
  65.4805538  57.9453826  22.6656979  65.1644586  56.5994121  22.0489912
  60.9507599  63.5145446  37.7869720  60.8504326  64.4639803  37.7181811
  60.7329141  63.1863685  36.9145790  60.1520670  60.7630371  14.3710397
  61.0139834  61.0885270  14.6306214  60.3371015  59.9761867  13.8583463
  52.1688086  68.8452711  26.6490586  51.4751558  68.4306664  26.1360540
  52.9161077  68.8873247  26.0524005  68.3053307  59.6358898  21.5145620
  67.7251976  60.2943702  21.1323672  68.0389240  58.8136242  21.1033038
  66.7556873  59.0363955  23.7166940  67.2556652  59.1480490  22.9081259
  67.3992481  58.7325008  24.3567749  60.8138869  66.9442585  36.6034781
  60.3305951  67.7442945  36.8098670  60.8999808  66.9550530  35.6502225
  54.0824829  68.7770965  24.5256601  54.0595517  68.8758652  23.5738484
  54.3925465  69.6236116  24.8473767  56.7412207  70.8347120  28.6403215
  57.6955460  70.8031062  28.5733147  56.5424730  70.3737743  29.4553441
  57.3311589  69.4048236  31.2074013  58.1504478  69.8992314  31.2308850
  57.6048396  68.4880204  31.1791580  67.0878185  61.7958988  20.5701968
  66.2004040  62.0808639  20.3522163  67.5032174  61.6352751  19.7229245
  70.4392721  61.8205509  24.2856308  71.2153111  62.3101962  24.5580924
  69.7140855  62.2463563  24.7428177  72.8765280  62.5333128  25.3430248
  73.4709770  62.2928864  24.6323556  72.9491863  61.8140259  25.9703784
  55.0962435  76.3766739  25.6573413  54.9616903  75.6167140  25.0911411
  54.6794498  77.1007639  25.1902202  66.2321398  71.5603663  14.6649988
  66.9357248  71.7653665  15.2807644  65.5084047  72.1280425  14.9299072
  67.0619209  67.3113524  20.7852258  67.0054410  67.7682075  19.9459891
  67.6147551  66.5504209  20.6075101  70.8724015  63.1003256  21.6102378
  70.6160949  62.6999892  22.4410586  70.2476883  63.8147050  21.4852517
  75.1836352  65.8399329  24.1173669  74.6235910  65.9092518  24.8905231
  74.5779856  65.6640314  23.3973166  58.2531561  77.2736056  25.8691856
  58.1363945  78.2181489  25.7670546  57.4324007  76.9709618  26.2577655
  68.1408096  71.9986192  16.7148448  68.9753700  71.5667390  16.5325923
  67.9792439  71.8268206  17.6425343  67.7953988  68.5018305  18.0804788
  67.7402792  68.3362577  17.1393232  67.1700043  69.2094338  18.2366977
  52.5846503  63.7386370  31.9066210  53.2305367  63.2285324  32.3953435
  52.3763654  64.4755051  32.4809635  65.1099895  70.8067217  37.4058350
  65.9791055  70.9807869  37.0444985  64.6306647  71.6261634  37.2834080
  61.1050113  58.0026414  17.6590106  61.0928783  58.9468254  17.8158377
  61.9973535  57.8196560  17.3649567  59.2786075  77.9264318  29.0847784
  60.1813322  77.9587928  29.4014279  59.0523445  76.9964769  29.0994120
  61.0339677  76.6795305  25.7457863  60.0835308  76.6797166  25.6322235
  61.3372163  75.9328039  25.2293897  64.9202233  54.5969191  21.9136043
  64.1534629  54.0427678  22.0592725  65.3312938  54.6691060  22.7750194
  56.9243994  60.8853987  36.0041224  57.7875455  60.5290792  36.2144549
  56.3509405  60.5467882  36.6916628  76.7692371  82.5155843  26.8103625
  77.4070781  82.3962590  26.1066965  76.6513214  83.4636687  26.8691577
  73.5782077  82.4683271  26.7465150  73.2400589  82.3524336  25.8585685
  74.4471845  82.0674436  26.7266156  69.4368893  84.3218748  22.7362041
  68.8733758  84.2308685  21.9678329  69.3221288  83.5018652  23.2164533
  74.0601860  83.6218123  32.7051355  74.0490501  83.2270921  31.8331859
  74.2222500  82.8884196  33.2985127  66.9833325  85.8169939  25.5746261
  67.7754617  85.4760764  25.1592561  67.2229975  85.9264914  26.4948415
  68.9424079  85.0778852  18.4463640  69.7154955  84.5307840  18.3076516
  69.2949478  85.9423102  18.6578101  70.7809121  86.4055235  31.6530539
  70.4898987  87.3100866  31.5377206  71.4166106  86.4471762  32.3674609
  71.7065328  83.7832083  28.2431899  72.3028900  83.5588106  27.5288862
  71.7640300  83.0416829  28.8457347  71.2790357  81.2371519  16.0782090
  71.5315877  80.7153040  15.3165553  70.3414916  81.0737664  16.1808774
  76.3233639  80.2407297  23.8856833  77.1096729  79.8226720  23.5347250
  76.5872344  81.1453389  24.0538482  81.7242066  80.1782530  24.7889812
  82.4567238  79.6081747  25.0227641  80.9681422  79.7904131  25.2296317
  70.9986645  83.1399625  18.2806465  70.8822903  82.4644528  18.9487549
  71.1088905  82.6531998  17.4638618  73.3418186  82.6009772  21.9853154
  72.9776393  82.0740393  22.6966076  74.1985302  82.2108241  21.8119640
  79.2467487  73.8904104  29.2484420  78.9150812  74.7599515  29.0245635
  78.6513100  73.5740388  29.9278451  72.9823673  77.6299671  16.9814503
  73.1498075  78.4979908  17.3484974  72.7920842  77.7926953  16.0575792
  75.7399006  86.0916650  28.6480333  75.4399729  86.9941689  28.5396140
  75.3950066  85.8248833  29.5001486  69.1911488  82.5430447  24.6817037
  68.2661984  82.4106661  24.8894729  69.4395901  83.3224666  25.1786980
  79.1396150  78.6099190  26.3277770  78.2313027  78.5414599  26.0336531
  79.0883746  79.0871135  27.1559596  72.9612894  80.0857329  17.9661169
  72.8412519  80.5314380  18.8046650  72.2665482  80.4342647  17.4074708
  66.5520299  82.1863721  25.5160826  66.6812680  82.4398200  26.4300238
  65.8717750  82.7791429  25.1965482  70.7219786  92.8560971  21.6151301
  70.6443816  93.8068796  21.6939781  70.1181430  92.5106843  22.2726227
  73.2137016  80.0288836  34.2712668  72.4370350  80.5882756  34.2615532
  73.8527579  80.5145619  34.7927538  81.0057797  76.8115629  28.1055644
  80.3632177  77.1048162  27.4595439  80.5012725  76.6968549  28.9108841
  78.6597960  80.5578802  18.7941504  79.5715816  80.7906189  18.6189201
  78.1507607  81.1415846  18.2316582  71.4683388  82.8374289  33.8330635
  72.2098073  83.3759333  33.5565458  70.7620374  83.4640578  33.9902186
  76.9438728  84.9803430  32.4302796  77.3522084  84.5385840  31.6857428
  76.2215989  84.4056057  32.6836989  73.2969798  79.9176037  29.8036353
  74.1430993  80.3415450  29.9471002  73.2368436  79.2609661  30.4974916
  77.2667542  85.5404620  26.1855085  76.6376405  85.7050335  25.4831153
  76.8793205  85.9546230  26.9566049  81.1456774  86.4759058  23.5399449
  80.4607813  86.8557960  22.9896482  81.2300624  87.0854385  24.2731396
  76.4469243  77.5780405  31.4617527  76.2030175  78.3322465  30.9251802
  76.7229174  77.9565753  32.2964774  78.4007706  84.1219017  30.1394792
  78.6124601  84.7650777  29.4629173  78.3537454  83.2881334  29.6716722
  76.0033935  76.7336838  27.0431364  75.1418414  77.0318092  27.3348102
  76.0296370  76.9507237  26.1112397  72.8195504  85.2779029  23.4505170
  73.2833850  85.5566732  22.6609793  72.5552302  84.3762473  23.2678261
  69.7119585  84.8250510  26.3884933  70.2820942  85.2537778  25.7502418
  70.3027697  84.5433095  27.0869119  71.7564390  81.4002181  20.2594735
  72.4588434  81.8523225  20.7268662  71.4245019  80.7586000  20.8874628
  70.2044752  79.9913938  34.6345945  69.5743413  80.6730218  34.8681341
  70.0980840  79.8797019  33.6899083  65.4989724  79.6585734  25.5611869
  64.7088778  79.9143262  25.0851979  65.9900972  80.4734071  25.6663909
  79.5153534  86.9990973  28.3117150  80.3370978  86.5971160  28.0299831
  79.5115937  86.8959207  29.2633265  67.4504470  80.0230313  22.5195345
  66.6535633  80.1349007  23.0378841  67.2230062  80.3616965  21.6536236
  73.2810137  86.5475016  30.4677860  73.3454570  87.0095423  31.3036032
  72.5721061  85.9172381  30.5960170  63.7827427  79.9116224  27.9926860
  64.0335466  80.7963234  28.2584436  64.3186976  79.7320826  27.2201951
  87.6059527  83.3429721  24.6602121  86.8523235  82.7737119  24.5046125
  87.7407068  83.3092386  25.6072756  72.9958155  88.2143124  20.3356840
  72.8603830  89.0594659  20.7641688  73.5367968  88.4162401  19.5722774
  69.4825495  74.2934703  36.9971196  69.0892440  73.7400902  37.6718840
  70.2991635  74.6045282  37.3877713  66.4487552  85.7318562  20.9084766
  66.9612073  86.5261812  21.0590330  67.1010265  85.0344852  20.8418367
  68.2582437  88.8484318  22.9907519  68.4349065  89.7702283  22.8028503
  69.0539271  88.5342737  23.4201898  72.3993456  75.7092582  34.5891452
  73.1403169  76.3099736  34.5095915  72.6311378  74.9670220  34.0309495
  67.5434794  80.8948950  32.8669682  67.4288309  79.9934207  33.1676781
  66.6879311  81.1412647  32.5154498  74.6226631  88.8366690  34.4657183
  74.1790486  88.0503069  34.1478087  75.2843845  89.0245841  33.8001073
  69.3813753  90.3662492  28.9917861  69.9321178  90.2379555  28.2194855
  68.5425228  90.6657381  28.6412754  76.7207869  89.1169490  32.4938584
  76.7026345  89.9378371  32.0018853  77.6427790  88.9923565  32.7188725
  73.1780924  86.6313619  33.3362092  73.7109260  85.8701908  33.1061400
  72.6495005  86.3387271  34.0786247  76.3450619  71.7373685  28.8655734
  76.0014888  72.6275327  28.7894844  76.7129581  71.5475343  28.0025319
  64.4136469  84.0607216  21.6844336  65.2511691  84.4704224  21.4678044
  64.5914737  83.1206658  21.6544530  76.3100901  81.7282297  17.3728169
  75.7947525  82.4986901  17.6116556  76.0378210  81.0547433  17.9961230
  73.8948012  76.5731997  22.4313407  73.0389609  76.1838848  22.2519046
  74.3074964  76.6523958  21.5713193  75.4247159  74.1078341  26.8304967
  74.9211955  74.0708476  26.0172772  75.7177766  75.0171083  26.8901624
  71.6690045  74.1917070  25.8371149  72.5343042  73.9959879  25.4777038
  71.7367554  73.9627422  26.7640506  76.0987204  79.6009389  19.1987950
  75.7937340  79.9155538  20.0498093  77.0517647  79.6790809  19.2415283
  74.5433636  85.7599612  20.8480904  74.0154998  85.0252372  20.5354142
  74.0421139  86.5374288  20.6020872  79.5226482  83.9548632  25.9647950
  78.8650157  84.6447894  26.0528079  80.3266882  84.3445064  26.3081937
  69.2752364  76.4219278  23.2087516  69.8496116  76.1994460  22.4760709
  69.8623346  76.4907973  23.9616117  78.3331941  82.3093005  24.0151892
  78.8463823  82.9422997  24.5173602  78.9833165  81.7094201  23.6495252
  69.6021951  78.4523739  17.2283401  68.7659263  78.7898426  17.5492676
  69.4626721  78.3172719  16.2910538  71.5775032  73.2960527  21.9362585
  70.9239444  72.9809544  21.3119200  71.5355506  72.6736268  22.6622408
  74.8112772  79.7842461  26.2610233  73.8935333  80.0057408  26.1031921
  75.2272916  79.8588771  25.4021940  75.5947820  81.1833876  21.3912913
  76.3419639  81.6955274  21.0820035  75.8639409  80.8617929  22.2517307
  73.8674470  83.6792417  18.3739867  72.9585689  83.3951450  18.4712337
  73.8969554  84.0991496  17.5143174  79.0993737  87.2899007  22.1431035
  78.6456064  86.4489916  22.1996225  78.4687704  87.9260405  22.4805815
  78.0426657  78.2190993  23.3731702  77.3049414  77.7068379  23.7041945
  78.2953430  77.7791374  22.5614979  77.5426677  89.1275503  23.0780853
  77.8349651  89.6880560  22.3593219  78.0525297  89.4204064  23.8334012
  78.1438284  70.9967245  23.9673472  78.4497161  70.1364608  23.6799387
  78.8690889  71.5884865  23.7672465  64.4362640  81.3997931  22.3555069
  64.2387040  80.8067292  21.6306136  63.8809304  81.0950141  23.0731008
  72.4159364  81.2921038  24.4749663  72.4707974  80.3394874  24.3992139
  71.6050566  81.4480477  24.9590961  70.3551724  79.9098097  22.2340041
  69.5419589  80.2092268  22.6405234  70.8510718  79.5153786  22.9514524
  72.5060302  89.9055854  24.1674306  72.4636481  90.1316701  23.2382838
  73.4223001  89.6719229  24.3160107  75.9525936  80.3739922  31.0654935
  76.3075323  80.6011395  31.9249401  76.5998067  80.7058299  30.4432191
  81.6823673  83.4958358  21.7704264  81.5441571  83.6859954  20.8425454
  81.3259891  84.2577741  22.2272316  69.8465799  77.4816453  27.8501276
  70.4865178  77.3405212  27.1524240  69.0143329  77.1950966  27.4739878
  81.7093052  85.5634885  26.7815536  82.1429559  85.4710174  27.6298590
  82.4224633  85.5392385  26.1435552  70.6226103  86.7818883  23.9636269
  71.4166701  86.2869204  23.7618844  69.9117795  86.2536747  23.6003974
  75.4420947  89.1636979  28.3148637  75.4957969  89.7327915  29.0826352
  74.5735728  89.3338864  27.9502674  66.9308866  80.9261965  20.0396022
  66.0006454  80.8646421  20.2565984  67.0266338  80.4037918  19.2432663
  66.8494415  77.4516778  22.6274263  67.1101232  78.3662111  22.5183424
  67.6711587  76.9841221  22.7770876  68.3219340  78.8654535  29.7973088
  68.9942394  78.6571897  29.1485737  67.4949127  78.6676621  29.3578320
  82.5708602  85.6058585  29.3148421  82.7644492  86.5104396  29.5607696
  82.4709220  85.1466005  30.1487006  74.2244912  75.4916476  31.8138749
  73.5772827  76.1906426  31.7203225  74.9945928  75.9252620  32.1814997
  77.6323710  85.7565328  34.8889302  77.4809217  85.5275880  33.9719386
  77.6228390  86.7135930  34.9020647  74.4009047  83.3297241  29.8735568
  75.3301107  83.4808401  29.7004536  73.9800077  83.4181262  29.0184215
  73.1997379  87.3547905  27.6434106  73.0608464  86.9866690  28.5160044
  72.4111975  87.8695545  27.4718064  74.7502594  86.7329508  25.0322944
  74.4152426  86.6930278  25.9280594  74.2506539  86.0674224  24.5593354
  68.7246838  82.1397138  30.5575525  68.5866636  81.4077377  31.1587064
  69.6351761  82.0506038  30.2759713  71.3529138  81.8517097  30.0459205
  72.0628757  81.2110290  30.0045823  71.3098447  82.1029992  30.9685385
  79.3415917  88.7884451  32.9665784  79.2828463  88.1043671  32.2996367
  79.7435435  89.5303441  32.5146410  70.0658072  78.8382315  31.8654844
  69.5295429  78.3873054  32.5176440  69.4774781  78.9728224  31.1225308
  68.3606616  95.6046365  25.7599503  68.6003214  96.2364889  26.4378521
  67.5175812  95.2534405  26.0464862  69.4760331  78.2970967  14.4281308
  68.5989798  78.1759767  14.0643554  69.9518084  77.5057045  14.1760196
  79.3433324  86.7524035  31.1979763  78.4560103  86.4149956  31.3206162
  79.9131875  86.0207066  31.4348529  60.9962471  83.0848126  24.5222815
  61.6833511  82.7709856  23.9343830  60.8410600  83.9889491  24.2490066
  65.7997194  77.9738323  28.9507839  65.7155382  77.3663993  28.2158248
  64.9779900  78.4647341  28.9517335  72.8734478  91.4125487  28.1641007
  72.8004649  92.2180459  28.6760311  72.4311871  91.6117453  27.3389028
  72.6624257  90.6497257  21.6743828  71.8791779  91.1918937  21.7682053
  73.3617002  91.1671237  22.0738069  75.9720907  76.4591887  24.3178034
  76.4689607  75.7061849  23.9979104  75.2007889  76.4956203  23.7521243
  83.8250665  82.1632252  25.9596325  83.8140541  83.0456967  25.5890258
  82.9568044  81.8103803  25.7650862  75.3333161  91.3112321  30.3199165
  76.0461133  91.9459786  30.2475067  74.8423190  91.4076187  29.5039167
  77.0550688  85.2163574  21.8916457  76.1206967  85.3365036  21.7221161
  77.2327357  84.3136041  21.6276467  72.5555876  78.6009270  24.0449718
  72.1853664  78.0480310  24.7330624  73.0514969  77.9967403  23.4924718
  80.4423239  81.0580893  22.4266491  80.9083692  81.8908885  22.3526794
  80.8930740  80.5925875  23.1311750  70.3845075  89.0606765  31.1404736
  71.0854534  89.6943247  31.2934130  69.9140190  89.4021496  30.3800375
  78.4139902  73.4261480  26.4657392  77.5002982  73.6565707  26.6339599
  78.8433004  73.5099924  27.3171425  78.1846361  81.6151372  28.9657287
  77.5317811  81.8627279  28.3109739  78.5626741  80.8015510  28.6319764
  75.1453535  91.6511065  23.0685457  75.3275929  90.8332721  23.5313209
  75.9686521  91.8678757  22.6310347  74.2333934  82.3571183  35.4523324
  73.5574571  82.2565312  36.1225699  75.0561568  82.2010397  35.9159321
  65.9812793  88.5943120  28.0735839  66.5666230  87.8486807  28.2063743
  65.7837631  88.9047076  28.9572503  68.8351448  91.6294367  23.0898281
  68.1661823  92.1140495  22.6062321  68.6964318  91.8763587  24.0041660
  60.5730448  81.1648720  26.7940282  60.6114547  80.6312310  27.5877400
  60.0670740  80.6383925  26.1751259  72.9756717  93.6638110  29.6880940
  73.5275025  93.8269732  30.4530025  73.3162910  94.2542548  29.0160964
  67.9521210  76.0113260  30.2902824  68.0162536  76.8728091  29.8780222
  67.8888330  75.3987262  29.5575183  67.4273482  78.0836393  33.9375859
  68.0545521  77.7013470  34.5513383  66.5701401  77.8650595  34.3031551
  77.8267591  88.4899368  35.5429594  78.3707495  89.1029326  35.0484549
  77.2454436  89.0478946  36.0596607  64.2039025  79.8912822  19.8694213
  64.4992466  78.9823500  19.8161267  63.3027061  79.8700561  19.5475216
  76.1125104  91.6120086  26.6744622  75.9876243  90.8109826  26.1655567
  76.7704195  92.1066279  26.1858592  67.7333272  77.9668819  25.8521762
  67.0119858  78.5804786  25.7129235  68.5226528  78.5026583  25.7738408
  78.1760012  89.4129106  28.3024172  77.2290348  89.2934457  28.2302499
  78.5242785  88.5251604  28.3850433  70.5359586  75.3023245  32.1262414
  71.0593987  75.5485542  32.8888723  70.3171919  76.1343280  31.7065551
  65.9326867  77.5726920  19.9933539  65.6039573  76.6924299  19.8108644
  66.2866237  77.5174588  20.8809928  75.1806446  89.2081822  24.5028524
  75.0331408  88.2798530  24.6836094  76.0059939  89.2301913  24.0185599
  69.0468690  77.8599889  20.3609016  69.3864762  78.3885811  19.6387625
  69.4940810  78.1980296  21.1367583  78.7840567  90.0310381  25.5893397
  79.7087115  89.8253242  25.4517848  78.6155871  89.7826782  26.4982738
  71.7412131  76.2436940  29.8112084  71.4008951  75.4444753  30.2132764
  71.0351137  76.5438651  29.2388917  72.3928603  73.3286253  28.2639407
  73.2154672  72.8546731  28.1418298  72.6366666  74.1076736  28.7638094
  71.0336837  76.3574511  18.5602309  71.7545200  76.7355764  18.0566026
  70.4102141  77.0763388  18.6637287  75.1767960  77.0619660  19.4960641
  75.3931574  77.9444298  19.1949469  74.6962027  76.6705873  18.7666283
  69.9167181  80.0205373  26.0731386  69.7711762  80.3345676  26.9655667
  69.4392385  80.6390274  25.5202285  71.7763564  77.0107921  26.1212275
  71.7625133  76.1149014  25.7844573  72.4935992  77.0178585  26.7550562
  73.6289695  77.4445261  28.1665403  73.3707473  78.3662332  28.1649733
  73.0974735  77.0475696  28.8565867  64.3912843  82.5610718  29.0119047
  63.8466312  83.3370526  29.1439321  65.2692193  82.9081522  28.8538169
  71.1800460  75.8922301  21.3899846  71.3016371  74.9638948  21.5890733
  70.8902502  75.9060987  20.4778161  74.0491650  73.5777212  24.5266565
  74.0713347  73.6416545  23.5718545  74.4659709  72.7381721  24.7207072
  84.4275275  83.3132471  22.5645788  84.8706421  82.5639797  22.1664911
  83.5501785  83.3042608  22.1819520  65.1778865  81.6880614  31.9049204
  64.4360601  81.8363249  32.4913834  64.8571610  81.9488879  31.0415953
  73.1222528  91.2296592  31.7029594  73.4309654  90.9845739  32.5752294
  73.9198010  91.4343231  31.2148464  73.1443140  93.3834502  23.9334971
  72.7048130  92.8910880  24.6267827  73.8951257  92.8407469  23.6927046
  65.6235479  89.5746043  23.9359599  66.4493499  89.2749814  23.5558242
  65.2729531  88.8053665  24.3849387  70.5917012  88.9272511  26.0057272
  69.9697021  88.2643216  25.7059500  71.2621879  88.9533643  25.3230920
  63.8244084  87.4932369  24.8948532  62.9875992  87.0654543  24.7132533
  63.7967729  87.6864812  25.8319323  70.6641540  77.4054299  35.5989778
  70.7129695  78.2816422  35.2167548  71.2064054  76.8631692  35.0261421
  81.1496385  87.9495422  34.8790915  80.3591929  87.9319561  34.3395415
  80.9129740  88.4883716  35.6339952  81.2694260  84.7987888  32.1923644
  81.3192265  84.6337896  33.1339167  81.1608184  83.9315147  31.8021525
  70.1530519  87.4776434  19.4815733  70.3018639  88.1611899  18.8282405
  70.9596963  87.4581524  19.9965188  78.5598023  80.7818816  33.5082951
  79.4607886  80.6425281  33.2166948  78.6345997  80.9473271  34.4481128
  72.8940828  78.1585671  32.3536137  72.0244137  78.4519237  32.0818725
  73.1300308  78.7426116  33.0743400  82.7712457  87.2184830  32.4365665
  82.4797265  87.5814811  33.2729126  82.1584588  86.5051838  32.2578997
  83.9708140  84.7837710  24.9568236  84.8055031  85.2227514  25.1205796
  84.1067268  84.3076363  24.1376481  81.0199645  82.3417445  30.9045723
  81.4953767  82.5345091  30.0964575  80.0965211  82.3976630  30.6589107
  67.9083152  83.5041612  20.4876802  67.6629194  82.6003942  20.6857012
  68.0779067  83.5058762  19.5456280  75.5979862  74.3765288  29.8701557
  76.1161806  75.1126315  29.5448046  75.2434995  74.6829281  30.7048316
  67.1778800  79.2369969  17.9862963  66.4848045  79.3114324  17.3302999
  66.9330551  78.4730313  18.5084480  75.8492456  70.7965571  25.3902454
  76.1294210  70.1288760  26.0162880  76.6343063  70.9894666  24.8777118
  79.7201314  79.2183205  29.1374029  80.6718737  79.3181302  29.1586253
  79.5504765  78.4261473  29.6472113  77.7415694  76.3038788  29.3233430
  77.1465626  76.5843801  28.6279918  77.4565391  76.7932689  30.0950171
  82.1989392  82.4389324  28.2516329  82.1665712  81.5005325  28.4376012
  82.8090016  82.5173361  27.5182153  82.3483881  79.2300368  28.2974612
  81.8322929  78.4458824  28.1104541  83.2323829  78.9019084  28.4621131
  80.0094608  72.9741383  24.2570424  79.8119429  72.6656472  25.1413756
  80.6194313  73.7003022  24.3868354  88.0165942  83.5005331  27.3922365
  88.7469331  83.2390619  27.9530069  87.4072888  82.7634053  27.4324433
  86.0981239  81.6413194  27.9896817  85.3714403  81.5069159  27.3813308
  85.6828526  81.9490022  28.7953535  73.9211416  85.3603123  35.7544190
  74.8414425  85.5381722  35.9484236  73.8860999  84.4159169  35.6023889
  72.2215640  79.2335354  14.2298418  71.3147096  78.9368466  14.3061131
  72.4991621  78.9365172  13.3632704  63.1393581  80.5541717  24.6797464
  62.8196365  79.7007025  24.3871838  62.5927009  80.7690295  25.4355432
  66.9173488  83.2704158  28.3966971  67.1359498  84.2021266  28.4155005
  67.3299262  82.9112133  29.1821775  73.8377706  73.7772243  20.3842659
  73.0278434  73.4319328  20.7597905  74.5262123  73.4679787  20.9730271
  75.7668254  72.8550290  22.0066956  76.3199293  73.2745744  22.6656979
  76.0038341  71.9286038  22.0489912  71.7901353  78.8437364  37.7869720
  71.6898080  79.7931721  37.7181811  71.5722896  78.5155603  36.9145790
  70.9914425  76.0922289  14.3710397  71.8533589  76.4177187  14.6306214
  71.1764769  75.3053785  13.8583463  63.0081841  84.1744629  26.6490586
  62.3145312  83.7598581  26.1360540  63.7554832  84.2165165  26.0524005
  79.1447061  74.9650815  21.5145620  78.5645730  75.6235619  21.1323672
  78.8782994  74.1428160  21.1033038  77.5950628  74.3655873  23.7166940
  78.0950406  74.4772408  22.9081259  78.2386236  74.0616926  24.3567749
  71.6532624  82.2734503  36.6034781  71.1699705  83.0734863  36.8098670
  71.7393563  82.2842448  35.6502225  64.9218583  84.1062882  24.5256601
  64.8989271  84.2050570  23.5738484  65.2319220  84.9528033  24.8473767
  67.5805961  86.1639037  28.6403215  68.5349215  86.1322980  28.5733147
  67.3818485  85.7029661  29.4553441  68.1705343  84.7340153  31.2074013
  68.9898232  85.2284232  31.2308850  68.4442151  83.8172122  31.1791580
  77.9271939  77.1250906  20.5701968  77.0397794  77.4100556  20.3522163
  78.3425928  76.9644669  19.7229245  81.2786475  77.1497427  24.2856308
  82.0546866  77.6393879  24.5580924  80.5534610  77.5755481  24.7428177
  83.7159034  77.8625046  25.3430248  84.3103525  77.6220782  24.6323556
  83.7885618  77.1432177  25.9703784  65.9356190  91.7058657  25.6573413
  65.8010658  90.9459058  25.0911411  65.5188252  92.4299557  25.1902202
  77.9012963  82.6405442  20.7852258  77.8448164  83.0973993  19.9459891
  78.4541306  81.8796126  20.6075101  81.7117769  78.4295174  21.6102378
  81.4554703  78.0291809  22.4410586  81.0870637  79.1438968  21.4852517
  86.0230107  81.1691247  24.1173669  85.4629665  81.2384436  24.8905231
  85.4173610  80.9932231  23.3973166  69.0925316  92.6027974  25.8691856
  68.9757700  93.5473406  25.7670546  68.2717762  92.3001535  26.2577655
  63.4240257  79.0678287  31.9066210  64.0699121  78.5577241  32.3953435
  63.2157409  79.8046969  32.4809635  75.9493650  86.1359135  37.4058350
  76.8184809  86.3099787  37.0444985  75.4700401  86.9553552  37.2834080
  71.9443868  73.3318332  17.6590106  71.9322538  74.2760172  17.8158377
  72.8367290  73.1488477  17.3649567  70.1179830  93.2556236  29.0847784
  71.0207077  93.2879846  29.4014279  69.8917200  92.3256687  29.0994120
  71.8733432  92.0087222  25.7457863  70.9229063  92.0089084  25.6322235
  72.1765918  91.2619957  25.2293897  75.7595987  69.9261109  21.9136043
  74.9928383  69.3719595  22.0592725  76.1706692  69.9982977  22.7750194
  67.7637748  76.2145904  36.0041224  68.6269210  75.8582709  36.2144549
  67.1903159  75.8759799  36.6916628  84.8995615  98.9510041  32.7051355
  84.8884255  98.5562839  31.8331859  85.0616254  98.2176113  33.2985127
  81.6202876 101.7347152  31.6530539  81.3292742 102.6392783  31.5377206
  82.2559860 101.7763680  32.3674609  90.0861241  89.2196022  29.2484420
  89.7544566  90.0891433  29.0245635  89.4906855  88.9032306  29.9278451
  84.0530770  95.3580754  34.2712668  83.2764104  95.9174674  34.2615532
  84.6921333  95.8437537  34.7927538  82.3077143  98.1666207  33.8330635
  83.0491827  98.7051251  33.5565458  81.6014128  98.7932496  33.9902186
  84.1363552  95.2467954  29.8036353  84.9824748  95.6707368  29.9471002
  84.0762190  94.5901579  30.4974916  87.2862998  92.9072323  31.4617527
  87.0423930  93.6614383  30.9251802  87.5622928  93.2857670  32.2964774
  81.0438506  95.3205855  34.6345945  80.4137167  96.0022136  34.8681341
  80.9374594  95.2088937  33.6899083  76.3383479  94.9877651  25.5611869
  75.5482533  95.2435180  25.0851979  76.8294726  95.8025989  25.6663909
  74.6221182  95.2408142  27.9926860  74.8729220  96.1255152  28.2584436
  75.1580730  95.0612743  27.2201951  80.3219249  89.6226621  36.9971196
  79.9286195  89.0692820  37.6718840  81.1385389  89.9337200  37.3877713
  83.2387210  91.0384500  34.5891452  83.9796924  91.6391653  34.5095915
  83.4705133  90.2962138  34.0309495  78.3828548  96.2240867  32.8669682
  78.2682063  95.3226125  33.1676781  77.5273066  96.4704564  32.5154498
  84.0174678 101.9605537  33.3362092  84.5503015 101.1993825  33.1061400
  83.4888759 101.6679189  34.0786247  87.1844373  87.0665603  28.8655734
  86.8408642  87.9567245  28.7894844  87.5523336  86.8767261  28.0025319
  86.2640913  89.4370258  26.8304967  85.7605709  89.4000393  26.0172772
  86.5571520  90.3463001  26.8901624  82.5083799  89.5208988  25.8371149
  83.3736796  89.3251797  25.4777038  82.5761308  89.2919340  26.7640506
  86.7919690  95.7031840  31.0654935  87.1469078  95.9303313  31.9249401
  87.4391821  96.0350216  30.4432191  80.6859553  92.8108371  27.8501276
  81.3258932  92.6697130  27.1524240  79.8537084  92.5242884  27.4739878
  79.1613095  94.1946453  29.7973088  79.8336148  93.9863815  29.1485737
  78.3342881  93.9968539  29.3578320  85.0638667  90.8208394  31.8138749
  84.4166582  91.5198343  31.7203225  85.8339682  91.2544538  32.1814997
  79.5640592  97.4689056  30.5575525  79.4260390  96.7369295  31.1587064
  80.4745516  97.3797956  30.2759713  82.1922893  97.1809015  30.0459205
  82.9022511  96.5402207  30.0045823  82.1492201  97.4321910  30.9685385
  80.9051827  94.1674233  31.8654844  80.3689184  93.7164971  32.5176440
  80.3168535  94.3020142  31.1225308  71.8356226  98.4140044  24.5222815
  72.5227266  98.1001774  23.9343830  71.6804355  99.3181409  24.2490066
  76.6390948  93.3030241  28.9507839  76.5549137  92.6955910  28.2158248
  75.8173654  93.7939259  28.9517335  89.2533657  88.7553398  26.4657392
  88.3396737  88.9857625  26.6339599  89.6826758  88.8391842  27.3171425
  85.0727688  97.6863101  35.4523324  84.3968325  97.5857230  36.1225699
  85.8955322  97.5302314  35.9159321  71.4124202  96.4940637  26.7940282
  71.4508302  95.9604228  27.5877400  70.9064495  95.9675843  26.1751259
  78.7914964  91.3405178  30.2902824  78.8556291  92.2020009  29.8780222
  78.7282085  90.7279180  29.5575183  78.2667237  93.4128311  33.9375859
  78.8939276  93.0305388  34.5513383  77.4095156  93.1942512  34.3031551
  78.5727027  93.2960736  25.8521762  77.8513612  93.9096704  25.7129235
  79.3620282  93.8318501  25.7738408  81.3753340  90.6315163  32.1262414
  81.8987742  90.8777459  32.8888723  81.1565673  91.4635197  31.7065551
  82.5805885  91.5728858  29.8112084  82.2402706  90.7736671  30.2132764
  81.8744891  91.8730569  29.2388917  83.2322357  88.6578170  28.2639407
  84.0548426  88.1838648  28.1418298  83.4760421  89.4368654  28.7638094
  82.6157319  92.3399839  26.1212275  82.6018887  91.4440932  25.7844573
  83.3329747  92.3470503  26.7550562  84.4683449  92.7737179  28.1665403
  84.2101227  93.6954250  28.1649733  83.9368490  92.3767614  28.8565867
  75.2306598  97.8902635  29.0119047  74.6860066  98.6662443  29.1439321
  76.1085948  98.2373440  28.8538169  84.8885405  88.9069130  24.5266565
  84.9107102  88.9708463  23.5718545  85.3053464  88.0673638  24.7207072
  76.0172620  97.0172532  31.9049204  75.2754356  97.1655167  32.4913834
  75.6965364  97.2780797  31.0415953  81.5035294  92.7346216  35.5989778
  81.5523450  93.6108339  35.2167548  82.0457808  92.1923610  35.0261421
  89.3991777  96.1110734  33.5082951  90.3001640  95.9717199  33.2166948
  89.4739752  96.2765189  34.4481128  83.7334583  93.4877589  32.3536137
  82.8637892  93.7811155  32.0818725  83.9694063  94.0718034  33.0743400
  86.4373616  89.7057206  29.8701557  86.9555560  90.4418233  29.5448046
  86.0828749  90.0121199  30.7048316  86.6886211  86.1257488  25.3902454
  86.9687964  85.4580677  26.0162880  87.4736818  86.3186584  24.8777118
  88.5809448  91.6330706  29.3233430  87.9859381  91.9135718  28.6279918
  88.2959145  92.1224606  30.0950171  84.7605170 100.6895041  35.7544190
  85.6808180 100.8673640  35.9484236  84.7254753  99.7451086  35.6023889
  73.9787335  95.8833635  24.6797464  73.6590119  95.0298943  24.3871838
  73.4320763  96.0982213  25.4355432  77.7567243  98.5996076  28.3966971
  77.9753252  99.5313184  28.4155005  78.1693016  98.2404050  29.1821775
  82.6295108  94.1729282  37.7869720  82.5291835  95.1223639  37.7181811
  82.4116650  93.8447520  36.9145790  73.8475595  99.5036546  26.6490586
  73.1539067  99.0890499  26.1360540  74.5948586  99.5457083  26.0524005
  82.4926378  97.6026420  36.6034781  82.0093460  98.4026781  36.8098670
  82.5787317  97.6134365  35.6502225  78.4199716 101.4930955  28.6403215
  79.3742969 101.4614897  28.5733147  78.2212239 101.0321579  29.4553441
  79.0099098 100.0632071  31.2074013  79.8291987 100.5576150  31.2308850
  79.2835905  99.1464039  31.1791580  74.2634012  94.3970205  31.9066210
  74.9092875  93.8869159  32.3953435  74.0551163  95.1338887  32.4809635
  78.6031503  91.5437822  36.0041224  79.4662964  91.1874627  36.2144549
  78.0296914  91.2051717  36.6916628  41.5420598  14.6404492  19.4296662
  41.5309239  14.2457291  18.5577166  41.7041237  13.9070565  20.0230433
  38.2627859  17.4241604  18.3775846  37.9717725  18.3287235  18.2622512
  38.8984843  17.4658132  19.0919916  43.2217744  17.1103020  15.3725640
  42.9218467  18.0128059  15.2641447  42.8768804  16.8435203  16.2246793
  40.6955754  11.0475206  20.9957974  39.9189088  11.6069126  20.9860839
  41.3346317  11.5331989  21.5172844  38.9502126  13.8560659  20.5575941
  39.6916810  14.3945703  20.2810765  38.2439111  14.4826948  20.7147493
  44.4257466  15.9989799  19.1548103  44.8340822  15.5572210  18.4102735
  43.7034727  15.4242427  19.4082296  43.9287981   8.5966775  18.1862833
  43.6848913   9.3508835  17.6497109  44.2047912   8.9752122  19.0210080
  45.8826444  15.1405387  16.8640099  46.0943339  15.7837147  16.1874480
  45.8356192  14.3067703  16.3962029  37.6863490  11.0100307  21.3591251
  37.0562150  11.6916588  21.5926648  37.5799578  10.8983389  20.4144389
  46.9972272  18.0177342  15.0362456  47.8189715  17.6157530  14.7545138
  46.9934675  17.9145576  15.9878572  40.7628875  17.5661386  17.1923167
  40.8273308  18.0281793  18.0281339  40.0539799  16.9358751  17.3205477
  55.0878265  14.3616091  11.3847428  54.3341973  13.7923489  11.2291432
  55.2225806  14.3278755  12.3318062  36.9644232   5.3121073  23.7216502
  36.5711178   4.7587272  24.3964147  37.7810373   5.6231651  24.1123020
  39.8812193   6.7278952  21.3136759  40.6221907   7.3286105  21.2341221
  40.1130116   5.9856590  20.7554801  35.0253531  11.9135319  19.5914989
  34.9107047  11.0120577  19.8922087  34.1698049  12.1599016  19.2399805
  42.1045369  19.8553060  21.1902489  41.6609223  19.0689438  20.8723394
  42.7662583  20.0432210  20.5246380  36.8632490  21.3848861  15.7163168
  37.4139916  21.2565925  14.9440162  36.0243966  21.6843750  15.3658060
  44.2026607  20.1355860  19.2183890  44.1845083  20.9564741  18.7264160
  45.1246527  20.0109935  19.4434032  40.6599661  17.6499989  20.0607399
  41.1927998  16.8888277  19.8306707  40.1313743  17.3573641  20.8031553
  47.0045220  14.9735002  12.6893257  46.3468895  15.6634263  12.7773386
  47.8085619  15.3631434  13.0327243  43.4344673  11.3926291  17.7900242
  43.7894061  11.6197765  18.6494708  44.0816805  11.7244668  17.1677497
  49.1911790  16.5821254  13.5060843  49.6248297  16.4896543  14.3543897
  49.9043371  16.5578755  12.8680859  42.9239685  20.1823348  15.0393943
  42.9776707  20.7514285  15.8071659  42.0554466  20.3525234  14.6747980
  50.0527340  16.6244955  16.0393728  50.2463230  17.5290766  16.2853003
  49.9527958  16.1652374  16.8732313  45.1142448  16.7751698  21.6134609
  44.9627955  16.5462249  20.6964692  45.1047128  17.7322299  21.6265954
  41.8827785  14.3483611  16.5980875  42.8119845  14.4994770  16.4249842
  41.4618815  14.4367631  15.7429522  40.6816116  18.3734275  14.3679413
  40.5427202  18.0053059  15.2405351  39.8930713  18.8881914  14.1963370
  46.8234655  19.8070820  19.6911090  46.7647201  19.1230040  19.0241673
  47.2254173  20.5489810  19.2391716  35.8425354  26.6232734  12.4844809
  36.0821952  27.2551258  13.1623828  34.9994550  26.2720774  12.7710169
  46.8252062  17.7710404  17.9225070  45.9378841  17.4336326  18.0451469
  47.3950613  17.0393435  18.1593836  40.3553215  22.4311857  14.8886313
  40.2823387  23.2366828  15.4005618  39.9130609  22.6303822  14.0634335
  51.3069403  13.1818622  12.6841632  51.2959279  14.0643337  12.3135565
  50.4386782  12.8290172  12.4896169  42.8151899  22.3298691  17.0444472
  43.5279871  22.9646155  16.9720373  42.3241928  22.4262557  16.2284474
  37.8663813  20.0793134  17.8650043  38.5673272  20.7129617  18.0179437
  37.3958928  20.4207866  17.1045682  45.6665099  12.6337742  15.6902593
  45.0136549  12.8813649  15.0355046  46.0445478  11.8201880  15.3565070
  42.6272272  22.6697435   9.7930763  42.8094667  21.8519091  10.2558516
  43.4505258  22.8865127   9.3555653  41.7152672  13.3757553  22.1768630
  41.0393309  13.2751682  22.8471005  42.5380305  13.2196766  22.6404627
  40.4575454  24.6824480  16.4126246  41.0093762  24.8456102  17.1775331
  40.7981648  25.2728918  15.7406271  45.3086329  19.5085738  22.2674901
  45.8526233  20.1215696  21.7729855  44.7273174  20.0665316  22.7841914
  43.5943842  22.6306456  13.3989928  43.4694981  21.8296195  12.8900874
  44.2522933  23.1252649  12.9103898  45.6578750  20.4315476  15.0269478
  44.7109086  20.3120827  14.9547805  46.0061523  19.5437974  15.1095740
  46.2659305  21.0496751  12.3138703  47.1905853  20.8439612  12.1763155
  46.0974609  20.8013152  13.2228045  40.6041266  22.2482962  18.4274901
  40.9128392  22.0032108  19.2997600  41.4016748  22.4529600  17.9393771
  40.6261878  24.4020871  10.6580277  40.1866868  23.9097250  11.3513134
  41.3769995  23.8593839  10.4172352  38.1460277   8.4240668  22.3235085
  38.1948433   9.3002791  21.9412854  38.6882792   7.8818061  21.7506728
  48.6315123  18.9681792  21.6036222  47.8410667  18.9505930  21.0640721
  48.3948478  19.5070085  22.3585259  48.7512998  15.8174258  18.9168950
  48.8011003  15.6524265  19.8584473  48.6426921  14.9501517  18.5266831
  46.0416761  11.8005186  20.2328257  46.9426623  11.6611651  19.9412255
  46.1164735  11.9659641  21.1726435  40.3759566   9.1772041  19.0781443
  39.5062875   9.4705607  18.8064032  40.6119046   9.7612486  19.7988707
  50.2531195  18.2371200  19.1610972  49.9616003  18.6001180  19.9974433
  49.6403326  17.5238208  18.9824304  51.4526877  15.8024079  11.6813542
  52.2873769  16.2413883  11.8451103  51.5886006  15.3262733  10.8621788
  48.5018383  13.3603814  17.6291030  48.9772505  13.5531460  16.8209881
  47.5783949  13.4163000  17.3834414  47.2020052  10.2369574  15.8619336
  48.1537475  10.3367672  15.8831560  47.0323503   9.4447843  16.3717420
  49.6808130  13.4575694  14.9761635  49.6484450  12.5191695  15.1621319
  50.2908754  13.5359731  14.2427460  49.8302618  10.2486737  15.0219918
  49.3141667   9.4645194  14.8349847  50.7142567   9.9205454  15.1866438
  55.4984680  14.5191701  14.1167672  56.2288068  14.2576989  14.6775375
  54.8891625  13.7820423  14.1569740  53.5799977  12.6599563  14.7142123
  52.8533141  12.5255528  14.1058615  53.1647264  12.9676392  15.5198841
  41.4030153  16.3789493  22.4789496  42.3233163  16.5568092  22.6729543
  41.3679736  15.4345538  22.3269196  39.2720091   9.8623733  24.5115026
  39.1716818  10.8118090  24.4427117  39.0541633   9.5341972  23.6391096
  39.1351361  13.2920872  23.3280088  38.6518443  14.0921232  23.5343977
  39.2212300  13.3028817  22.3747532  35.6524081  15.7526523  17.9319319
  36.4716970  16.2470602  17.9554157  35.9260889  14.8358491  17.9036887
  36.5744053  23.6214344  12.5937162  36.4576438  24.5659776  12.4915853
  35.7536500  23.3187905  12.9822962  43.4312387  17.1545504  24.1303657
  44.3003547  17.3286157  23.7690292  42.9519139  17.9739921  24.0079386
  37.5998568  24.2742605  15.8093091  38.5025814  24.3066216  16.1259586
  37.3735938  23.3443056  15.8239427  39.3552170  23.0273592  12.4703169
  38.4047801  23.0275454  12.3567542  39.6584656  22.2806327  11.9539204
  35.2456486   7.2332274  22.7286531  36.1087948   6.8769079  22.9389855
  34.6721897   6.8946169  23.4161935  55.0904863  28.8634130  13.5348932
  55.7283273  28.7440878  12.8312272  54.9725706  29.8114974  13.5936884
  51.8994569  28.8161558  13.4710456  51.5613081  28.7002623  12.5830991
  52.7684338  28.4152724  13.4511463  47.7581385  30.6697035   9.4607347
  47.1946250  30.5786972   8.6923635  47.6433780  29.8496939   9.9409840
  52.3814352  29.9696410  19.4296662  52.3702993  29.5749208  18.5577166
  52.5434992  29.2362483  20.0230433  45.3045817  32.1648226  12.2991568
  46.0967109  31.8239051  11.8837867  45.5442467  32.2743201  13.2193721
  53.3380944  34.3368003   4.7721812  52.6868924  34.9222083   4.3855826
  54.1325307  34.8674197   4.8316850  47.2636571  31.4257140   5.1708947
  48.0367447  30.8786127   5.0321822  47.6161970  32.2901389   5.3823408
  49.1021614  32.7533522  18.3775846  48.8111479  33.6579153  18.2622512
  49.7378598  32.7950050  19.0919916  50.0277820  30.1310370  14.9677206
  50.6241393  29.9066393  14.2534169  50.0852792  29.3895116  15.5702653
  54.6446132  26.5885584  10.6102140  55.4309221  26.1705007  10.2592557
  54.9084836  27.4931676  10.7783788  54.8156209  32.0258434   5.3090797
  54.1802042  32.0993061   6.0211701  54.4853615  32.6152033   4.6309876
  60.0454559  26.5260817  11.5135118  60.7779731  25.9560034  11.7472948
  59.2893914  26.1382418  11.9541624  49.3199138  29.4877912   5.0051772
  49.2035396  28.8122815   5.6732856  49.4301397  29.0010286   4.1883925
  51.6630678  28.9488059   8.7098461  51.2988886  28.4218680   9.4211382
  52.5197794  28.5586528   8.5364946  57.5679979  20.2382391  15.9729727
  57.2363304  21.1077802  15.7490942  56.9725592  19.9218675  16.6523757
  54.0611499  32.4394937  15.3725640  53.7612222  33.3419976  15.2641447
  53.7162558  32.1727121  16.2246793  47.5123980  28.8908734  11.4062344
  46.5874477  28.7584948  11.6140036  47.7608393  29.6702954  11.9032286
  57.4608642  24.9577478  13.0523077  56.5525520  24.8892886  12.7581838
  57.4096238  25.4349423  13.8804902  51.2825386  26.4335616   4.6906476
  51.1625011  26.8792667   5.5291956  50.5877975  26.7820934   4.1320014
  44.8732791  28.5342008  12.2406133  45.0025172  28.7876487  13.1545545
  44.1930242  29.1269716  11.9210788  49.0432278  39.2039258   8.3396607
  48.9656308  40.1547083   8.4185088  48.4393922  38.8585130   8.9971534
  51.5349508  26.3767123  20.9957974  50.7582842  26.9361043  20.9860839
  52.1740071  26.8623906  21.5172844  59.3270289  23.1593916  14.8300951
  58.6844669  23.4526449  14.1840745  58.8225217  23.0446836  15.6354148
  56.9810452  26.9057089   5.5186810  57.8928309  27.1384476   5.3434508
  56.4720100  27.4894133   4.9561889  49.7895880  29.1852577  20.5575941
  50.5310565  29.7237621  20.2810765  49.0832866  29.8118865  20.7147493
  55.2651220  31.3281717  19.1548103  55.6734576  30.8864128  18.4102735
  54.5428482  30.7534345  19.4082296  51.6182290  26.2654324  16.5281660
  52.4643485  26.6893737  16.6716309  51.5580928  25.6087948  17.2220223
  55.5880035  31.8882908  12.9100392  54.9588897  32.0528622  12.2076459
  55.2005697  32.3024517  13.6811356  59.4669267  32.8237346  10.2644755
  58.7820305  33.2036247   9.7141789  59.5513116  33.4332672  10.9976703
  54.7681735  23.9258692  18.1862833  54.5242667  24.6800753  17.6497109
  55.0441666  24.3044040  19.0210080  56.7220198  30.4697305  16.8640099
  56.9337094  31.1129064  16.1874480  56.6749947  29.6359621  16.3962029
  54.3246427  23.0815125  13.7676671  53.4630906  23.3796379  14.0593409
  54.3508862  23.2985524  12.8357704  51.1407997  31.6257316  10.1750477
  51.6046342  31.9045019   9.3855099  50.8764795  30.7240760   9.9923567
  48.0332078  31.1728797  13.1130240  48.6033435  31.6016066  12.4747724
  48.6240190  30.8911382  13.8114426  50.0776883  27.7480468   6.9840042
  50.7800926  28.2001512   7.4513968  49.7457511  27.1064287   7.6119935
  48.5257244  26.3392225  21.3591251  47.8955905  27.0208506  21.5926648
  48.4193332  26.2275306  20.4144389  43.8202217  26.0064021  12.2857175
  43.0301271  26.2621549  11.8097286  44.3113464  26.8212359  12.3909216
  57.8366026  33.3469260  15.0362456  58.6583470  32.9449447  14.7545138
  57.8328429  33.2437494  15.9878572  45.7716962  26.3708600   9.2440652
  44.9748125  26.4827294   9.7624148  45.5442554  26.7095252   8.3781543
  51.6022630  32.8953303  17.1923167  51.6667062  33.3573711  18.0281339
  50.8933554  32.2650668  17.3205477  42.1039920  26.2594511  14.7172166
  42.3547958  27.1441521  14.9829742  42.6399468  26.0799113  13.9447258
  65.9272019  29.6908008  11.3847428  65.1735728  29.1215407  11.2291432
  66.0619560  29.6570673  12.3318062  51.3170647  34.5621411   7.0602147
  51.1816322  35.4072947   7.4886995  51.8580460  34.7640688   6.2968081
  47.8037987  20.6412991  23.7216502  47.4104933  20.0879189  24.3964147
  48.6204127  20.9523569  24.1123020  44.7700045  32.0796849   7.6330072
  45.2824565  32.8740099   7.7835637  45.4222758  31.3823139   7.5663674
  46.5794929  35.1962605   9.7152825  46.7561558  36.1180570   9.5273809
  47.3751763  34.8821024  10.1447205  50.7205948  22.0570870  21.3136759
  51.4615661  22.6578023  21.2341221  50.9523871  21.3148508  20.7554801
  45.8647286  27.2427237  19.5914989  45.7500801  26.3412494  19.8922087
  45.0091804  27.4890934  19.2399805  52.9439124  35.1844977  21.1902489
  52.5002978  34.3981356  20.8723394  53.6056337  35.3724128  20.5246380
  47.7026245  36.7140779  15.7163168  48.2533670  36.5857842  14.9440162
  46.8637721  37.0135668  15.3658060  55.0420362  35.4647777  19.2183890
  55.0238837  36.2856658  18.7264160  55.9640282  35.3401852  19.4434032
  51.4993416  32.9791907  20.0607399  52.0321753  32.2180195  19.8306707
  50.9707497  32.6865559  20.8031553  54.6663111  18.0851973  15.5901041
  54.3227380  18.9753614  15.5140151  55.0342073  17.8953630  14.7270626
  42.7348961  30.4085503   8.4089643  43.5724183  30.8182511   8.1923350
  42.9127229  29.4684945   8.3789837  54.6313394  28.0760584   4.0973476
  54.1160017  28.8465188   4.3361863  54.3590702  27.4025720   4.7206537
  52.2160505  22.9210285   9.1558714  51.3602101  22.5317135   8.9764353
  52.6287456  23.0002245   8.2958500  53.7459651  20.4556628  13.5550274
  53.2424447  20.4186763  12.7418079  54.0390258  21.3649371  13.6146930
  49.9902537  20.5395358  12.5616456  50.8555534  20.3438166  12.2022345
  50.0580046  20.3105709  13.4885812  59.6047668  30.8292938   6.0326649
  58.8277111  30.4904098   5.5881811  60.2839149  30.8345562   5.3581614
  54.4199697  25.9487676   5.9233257  54.1149832  26.2633825   6.7743400
  55.3730139  26.0269096   5.9660590  52.8646129  32.1077899   7.5726211
  52.3367490  31.3730659   7.2599448  52.3633631  32.8852576   7.3266179
  57.8438975  30.3026920  12.6893257  57.1862649  30.9926181  12.7773386
  58.6479374  30.6923352  13.0327243  47.5964856  22.7697565   9.9332822
  48.1708608  22.5472747   9.2006015  48.1835839  22.8386260  10.6861424
  56.6544433  28.6571292  10.7397199  57.1676315  29.2901284  11.2418909
  57.3045657  28.0572488  10.3740559  53.9166808  38.6355617   3.4957870
  53.2428506  38.9387313   4.1042828  54.3032630  39.4384697   3.1463327
  53.1325264  26.1320748  12.9855539  52.2147826  26.3535695  12.8277227
  53.5485408  26.2067058  12.1267247  53.9160312  27.5312164   8.1158220
  54.6632131  28.0433561   7.8065342  54.1851902  27.2096216   8.9762613
  52.1886962  30.0270704   5.0985174  51.2798182  29.7429737   5.1957644
  52.2182046  30.4469783   4.2388481  57.4206230  33.6377294   8.8676341
  56.9668557  32.7968204   8.9241532  56.7900196  34.2738692   9.2051122
  56.3639149  24.5669280  10.0977009  55.6261906  24.0546666  10.4287252
  56.6165923  24.1269661   9.2860286  55.8639169  35.4753791   9.8026160
  56.1562143  36.0358848   9.0838525  56.3737789  35.7682352  10.5579319
  56.4650777  17.3445532  10.6918778  56.7709653  16.4842895  10.4044693
  57.1903381  17.9363152  10.4917772  42.7575133  27.7476218   9.0800376
  42.5599532  27.1545579   8.3551443  42.2021797  27.4428429   9.7976315
  50.7371856  27.6399325  11.1994969  50.7920466  26.6873161  11.1237446
  49.9263058  27.7958764  11.6836268  51.8863050  31.5679448   2.4373252
  51.4482480  30.8515307   1.9778890  52.6273491  31.7955563   1.8758344
  48.6764216  26.2576385   8.9585348  47.8632082  26.5570555   9.3650540
  49.1723210  25.8632073   9.6759830  50.8272794  36.2534142  10.8919613
  50.7848973  36.4794988   9.9628145  51.7435493  36.0197516  11.0405414
  54.2738428  26.7218209  17.7900242  54.6287816  26.9489682  18.6494708
  54.9210559  27.0536586  17.1677497  60.0036165  29.8436645   8.4949571
  59.8654063  30.0338241   7.5670760  59.6472384  30.6056028   8.9517622
  48.1678291  23.8294740  14.5746583  48.8077670  23.6883499  13.8769546
  47.3355822  23.5429254  14.1985185  60.0305544  31.9113172  13.5060843
  60.4642051  31.8188461  14.3543897  60.7437125  31.8870673  12.8680859
  48.9438595  33.1297171  10.6881576  49.7379193  32.6347491  10.4864151
  48.2330287  32.6015034  10.3249281  53.7633439  35.5115266  15.0393943
  53.8170462  36.0806202  15.8071659  52.8948221  35.6817151  14.6747980
  45.1706907  23.7995065   9.3519570  45.4313725  24.7140398   9.2428730
  45.9924080  23.3319508   9.5016183  46.6431833  25.2132822  16.5218394
  47.3154886  25.0050184  15.8731043  45.8161619  25.0154908  16.0823627
  60.8921094  31.9536873  16.0393728  61.0856984  32.8582683  16.2853003
  60.7921712  31.4944292  16.8732313  52.5457405  21.8394763  18.5384055
  51.8985320  22.5384713  18.4448532  53.3158420  22.2730907  18.9060303
  55.9536203  32.1043615  21.6134609  55.8021709  31.8754167  20.6964692
  55.9440882  33.0614217  21.6265954  52.7221539  29.6775528  16.5980875
  53.6513599  29.8286688  16.4249842  52.3012569  29.7659549  15.7429522
  51.5209871  33.7026193  14.3679413  51.3820957  33.3344977  15.2405351
  50.7324467  34.2173832  14.1963370  52.1158023  38.8035289   5.7104949
  52.2909779  38.3323332   6.5250572  51.4290811  39.4301055   5.9386210
  53.0715086  33.0807795  11.7568250  52.7364919  33.0408565  12.6525900
  52.5719032  32.4152511  11.2838661  47.0459330  28.4875425  17.2820832
  46.9079128  27.7555664  17.8832371  47.9564253  28.3984325  17.0005019
  56.0074278  30.4263830   2.0305310  55.3903448  29.7010658   1.9338363
  55.5390766  31.1873190   1.6872384  49.6741631  28.1995385  16.7704511
  50.3841249  27.5588577  16.7291130  49.6310939  28.4508279  17.6930692
  57.6628409  35.1362738  19.6911090  57.6040955  34.4521958  19.0241673
  58.0647928  35.8781728  19.2391716  48.3870565  25.1860603  18.5900151
  47.8507922  24.7351341  19.2421747  47.7987273  25.3206511  17.8470615
  46.6819108  41.9524652  12.4844809  46.9215706  42.5843176  13.1623828
  45.8388305  41.6012692  12.7710169  57.6645817  33.1002322  17.9225070
  56.7772595  32.7628244  18.0451469  58.2344368  32.3685353  18.1593836
  39.3174964  29.4326414  11.2468122  40.0046004  29.1188144  10.6589137
  39.1623092  30.3367778  10.9735373  44.1209686  24.3216610  15.6753145
  44.0367875  23.7142280  14.9403555  43.2992392  24.8125629  15.6762642
  51.1946970  37.7603774  14.8886313  51.1217141  38.5658746  15.4005618
  50.7524363  37.9595740  14.0634335  50.9836750  36.9975544   8.3989135
  50.2004271  37.5397224   8.4927359  51.6829495  37.5149524   8.7983376
  54.2933400  22.8070174  11.0423340  54.7902099  22.0540136  10.7224410
  53.5220381  22.8434490  10.4766550  62.1463157  28.5110539  12.6841632
  62.1353033  29.3935255  12.3135565  61.2780537  28.1582090  12.4896169
  53.6545654  37.6590608  17.0444472  54.3673626  38.2938073  16.9720373
  53.1635682  37.7554474  16.2284474  55.3763180  31.5641861   8.6161764
  54.4419459  31.6843323   8.4466468  55.5539849  30.6614328   8.3521773
  50.8768368  24.9487557  10.7695025  50.5066156  24.3958597  11.4575930
  51.3727461  24.3445690  10.2170025  58.7635732  27.4059180   9.1511798
  59.2296184  28.2387172   9.0772100  59.2143232  26.9404162   9.8557056
  48.7057567  35.4085052  17.8650043  49.4067027  36.0421535  18.0179437
  48.2352682  35.7499783  17.1045682  56.8311963  33.7503002   6.1497950
  57.1071807  33.6359596   7.0591824  55.9616462  33.3520486   6.1110123
  56.7352395  19.7739767  13.1902699  55.8215474  20.0043994  13.3584906
  57.1645496  19.8578211  14.0416731  56.5058853  27.9629659  15.6902593
  55.8530303  28.2105567  15.0355046  56.8839233  27.1493797  15.3565070
  53.4666027  37.9989352   9.7930763  53.6488421  37.1811008  10.2558516
  54.2899013  38.2157045   9.3555653  53.8008192  36.9257538   7.0545812
  54.3295959  36.4149992   6.4415974  54.0636412  36.6100068   7.9191345
  52.5546426  28.7049470  22.1768630  51.8787063  28.6043600  22.8471005
  53.3774060  28.5488684  22.6404627  44.3025285  34.9421407  14.7981145
  44.8878722  34.1965095  14.9309050  44.1050124  35.2525364  15.6817809
  47.1563940  37.9772654   9.8143588  46.4874316  38.4618782   9.3307628
  47.0176810  38.2241875  10.7286966  38.8942940  27.5127007  13.5185589
  38.9327039  26.9790598  14.3122707  38.3883233  26.9862213  12.8996566
  51.2969209  40.0116398  16.4126246  51.8487517  40.1748019  17.1775331
  51.6375402  40.6020836  15.7406271  46.2733702  22.3591548  17.0148131
  46.3375029  23.2206378  16.6025529  46.2100822  21.7465549  16.2820489
  45.7485975  24.4314680  20.6621165  46.3758013  24.0491757  21.2758690
  44.8913894  24.2128882  21.0276858  56.1480083  34.8377655  22.2674901
  56.6919987  35.4507614  21.7729855  55.5666928  35.3957234  22.7841914
  54.4337596  37.9598373  13.3989928  54.3088736  37.1588113  12.8900874
  55.0916687  38.4544567  12.9103898  46.0545764  24.3147106  12.5767069
  45.3332350  24.9283073  12.4374542  46.8439020  24.8504871  12.4983715
  56.4972505  35.7607393  15.0269478  55.5502840  35.6412745  14.9547805
  56.8455278  34.8729891  15.1095740  48.8572078  21.6501532  18.8507720
  49.3806480  21.8963829  19.6134030  48.6384411  22.4821567  18.4310858
  53.5018938  35.5560110  11.2273831  53.3543900  34.6276817  11.4081401
  54.3272431  35.5780200  10.7430906  47.3681182  24.2078177   7.0854323
  47.7077255  24.7364098   6.3632931  47.8153303  24.5458583   7.8612889
  57.1053060  36.3788668  12.3138703  58.0299607  36.1731530  12.1763155
  56.9368363  36.1305069  13.2228045  50.0624623  22.5915227  16.5357391
  49.7221443  21.7923040  16.9378071  49.3563629  22.8916938  15.9634224
  50.7141095  19.6764540  14.9884714  51.5367164  19.2025018  14.8663604
  50.9579158  20.4555024  15.4883400  53.4980452  23.4097947   6.2205948
  53.7144067  24.2922585   5.9194776  53.0174519  23.0184161   5.4911590
  48.2379674  26.3683660  12.7976693  48.0924254  26.6823963  13.6900974
  47.7604877  26.9868561  12.2447591  50.0976056  23.3586208  12.8457582
  50.0837625  22.4627302  12.5089880  50.8148485  23.3656872  13.4795868
  51.9502187  23.7923549  14.8910710  51.6919965  24.7140619  14.8895040
  51.4187228  23.3953983  15.5811174  56.8948376  36.8974336   7.6700795
  57.0685253  36.3320758   6.9174647  57.3877267  37.6975231   7.4880285
  42.7125336  28.9089005  15.7364354  42.1678804  29.6848813  15.8684628
  43.5904686  29.2559809  15.5783475  49.5012952  22.2400589   8.1145152
  49.6228864  21.3117235   8.3136040  49.2114995  22.2539275   7.2023468
  52.3704143  19.9255499  11.2511872  52.3925840  19.9894832  10.2963852
  52.7872202  19.0860008  11.4452378  62.7487767  29.6610759   9.2891095
  63.1918913  28.9118084   8.8910218  61.8714277  29.6520895   8.9064827
  57.8823548  36.2141100   4.7697693  58.5774453  36.8347793   4.9885008
  58.2246699  35.3636451   5.0450071  43.4991358  28.0358901  18.6294511
  42.7573094  28.1841536  19.2159141  43.1784102  28.2967167  17.7661260
  59.7814972  33.6640806   6.2985024  60.3066296  34.0028078   5.5734344
  59.6937324  32.7287821   6.1148159  51.4435020  37.5774879  18.4274901
  51.7522147  37.3324026  19.2997600  52.2410502  37.7821518  17.9393771
  51.4655632  39.7312789  10.6580277  51.0260623  39.2389168  11.3513134
  52.2163749  39.1885757  10.4172352  43.9447971  35.9224330  10.6604905
  44.7705991  35.6228102  10.2803549  43.5942023  35.1531952  11.1094694
  48.9129504  35.2750798  12.7302579  48.2909514  34.6121503  12.4304807
  49.5834371  35.3011930  12.0476227  42.1456576  33.8410656  11.6193839
  41.3088485  33.4132831  11.4377840  42.1180222  34.0343100  12.5564630
  48.9854032  23.7532586  22.3235085  49.0342187  24.6294709  21.9412854
  49.5276546  23.2109979  21.7506728  59.4708878  34.2973709  21.6036222
  58.6804421  34.2797848  21.0640721  59.2342232  34.8362003  22.3585259
  59.5906753  31.1466176  18.9168950  59.6404758  30.9816183  19.8584473
  59.4820676  30.2793435  18.5266831  48.4743011  33.8254721   6.2061039
  48.6231132  34.5090186   5.5527712  49.2809455  33.8059811   6.7210495
  56.8810515  27.1297104  20.2328257  57.7820378  26.9903569  19.9412255
  56.9558490  27.2951559  21.1726435  51.2153320  24.5063958  19.0781443
  50.3456630  24.7997525  18.8064032  51.4512801  25.0904403  19.7988707
  61.0924949  33.5663117  19.1610972  60.8009758  33.9293098  19.9974433
  60.4797081  32.8530125  18.9824304  62.2920632  31.1315997  11.6813542
  63.1267523  31.5705801  11.8451103  62.4279761  30.6554650  10.8621788
  59.3412138  28.6895732  17.6291030  59.8166259  28.8823378  16.8209881
  58.4177703  28.7454918  17.3834414  46.2295644  29.8519899   7.2122108
  45.9841686  28.9482229   7.4102318  46.3991559  29.8537049   6.2701586
  53.9192354  20.7243575  16.5946864  54.4374298  21.4604602  16.2693352
  53.5647487  21.0307569  17.4293623  54.1704948  17.1443858  12.1147760
  54.4506702  16.4767047  12.7408187  54.9555555  17.3372954  11.6022424
  51.9738417  36.3202852   3.6772787  51.4012384  36.9393039   3.2243259
  52.5471211  36.8702214   4.2112709  58.0413807  25.5661492  15.8619336
  58.9931230  25.6659590  15.8831560  57.8717257  24.7739760  16.3717420
  56.0628186  22.6517075  16.0478737  55.4678118  22.9322088  15.3525225
  55.7777883  23.1410976  16.8195478  55.1935677  36.6040002   4.8081369
  56.1266350  36.5385564   5.0114245  55.1058889  37.4396269   4.3495902
  57.8223693  35.9205872   1.7685317  57.7437325  35.5865736   2.6621075
  58.6433360  36.4127640   1.7676789  60.5201884  28.7867612  14.9761635
  60.4878205  27.8483612  15.1621319  61.1302508  28.8651648  14.2427460
  60.6696373  25.5778655  15.0219918  60.1535422  24.7937112  14.8349847
  61.5536322  25.2497372  15.1866438  58.3307100  19.3219671  10.9815731
  58.1331921  19.0134759  11.8659063  58.9406805  20.0481310  11.1113661
  66.3378434  29.8483618  14.1167672  67.0681823  29.5868907  14.6775375
  65.7285380  29.1112340  14.1569740  64.4193731  27.9891481  14.7142123
  63.6926895  27.8547446  14.1058615  64.0041018  28.2968310  15.5198841
  52.2423908  31.7081411  22.4789496  53.1626917  31.8860010  22.6729543
  52.2073491  30.7637456  22.3269196  41.4606073  26.9020004  11.4042771
  41.1408857  26.0485313  11.1117145  40.9139501  27.1168583  12.1600738
  45.2385980  29.6182445  15.1212277  45.4571990  30.5499553  15.1400311
  45.6511754  29.2590420  15.9067081  54.0880747  19.2028577   8.7312262
  54.6411785  19.6224031   9.3902286  54.3250833  18.2764326   8.7735218
  50.1113846  25.1915651  24.5115026  50.0110573  26.1410008  24.4427117
  49.8935388  24.8633890  23.6391096  41.3294333  30.5222916  13.3735892
  40.6357804  30.1076869  12.8605847  42.0767324  30.5643452  12.7769311
  57.4659554  21.3129103   8.2390927  56.8858223  21.9713907   7.8568979
  57.1995486  20.4906447   7.8278344  55.9163120  20.7134160  10.4412247
  56.4162898  20.8250695   9.6326566  56.5598728  20.4095213  11.0813055
  49.9745116  28.6212790  23.3280088  49.4912198  29.4213150  23.5343977
  50.0606055  28.6320735  22.3747532  43.2431075  30.4541170  11.2501907
  43.2201764  30.5528857  10.2983790  43.5531712  31.3006320  11.5719073
  45.9018453  32.5117325  15.3648522  46.8561707  32.4801267  15.2978453
  45.7030977  32.0507948  16.1798748  46.4917835  31.0818441  17.9319319
  47.3110724  31.5762519  17.9554157  46.7654643  30.1650409  17.9036887
  56.2484432  23.4729193   7.2947275  55.3610287  23.7578844   7.0767470
  56.6638421  23.3122956   6.4474552  59.5998968  23.4975714  11.0101614
  60.3759358  23.9872166  11.2826231  58.8747102  23.9233768  11.4673484
  62.0371526  24.2103333  12.0675555  62.6316017  23.9699069  11.3568863
  62.1098110  23.4910464  12.6949091  44.2568682  38.0536944  12.3818720
  44.1223150  37.2937345  11.8156718  43.8400744  38.7777844  11.9147509
  55.3927645  33.2373868   1.3895295  56.0963495  33.4423870   2.0052951
  54.6690294  33.8050630   1.6544378  56.2225455  28.9883729   7.5097565
  56.1660657  29.4452280   6.6705198  56.7753798  28.2274414   7.3320408
  60.0330261  24.7773461   8.3347685  59.7767196  24.3770096   9.1655892
  59.4083129  25.4917255   8.2097824  64.3442599  27.5169534  10.8418976
  63.7842157  27.5862723  11.6150538  63.7386103  27.3410519  10.1218472
  47.4137808  38.9506261  12.5937162  47.2970192  39.8951694  12.4915853
  46.5930254  38.6479823  12.9822962  57.3014343  33.6756397   3.4393755
  58.1359946  33.2437595   3.2571230  57.1398685  33.5038411   4.3670649
  56.9560235  30.1788510   4.8050094  56.9009038  30.0132782   3.8638538
  56.3306290  30.8864543   4.9612284  41.7452750  25.4156575  18.6311517
  42.3911613  24.9055529  19.1198742  41.5369901  26.1525256  19.2054942
  54.2706142  32.4837422  24.1303657  55.1397301  32.6578074  23.7690292
  53.7912893  33.3031839  24.0079386  48.4392322  39.6034523  15.8093091
  49.3419569  39.6358133  16.1259586  48.2129692  38.6734974  15.8239427
  50.1945924  38.3565510  12.4703169  49.2441555  38.3567371  12.3567542
  50.4978410  37.6098244  11.9539204  46.0850241  22.5624192  22.7286531
  46.9481702  22.2060997  22.9389855  45.5115651  22.2238086  23.4161935
  65.9298618  44.1926048  13.5348932  66.5677028  44.0732795  12.8312272
  65.8119460  45.1406892  13.5936884  62.7388324  44.1453476  13.4710456
  62.4006835  44.0294541  12.5830991  63.6078092  43.7444641  13.4511463
  58.5975140  45.9988953   9.4607347  58.0340005  45.9078889   8.6923635
  58.4827535  45.1788857   9.9409840  56.1439572  47.4940144  12.2991568
  56.9360863  47.1530969  11.8837867  56.3836222  47.6035119  13.2193721
  64.1774698  49.6659920   4.7721812  63.5262678  50.2514001   4.3855826
  64.9719061  50.1966115   4.8316850  58.1030325  46.7549057   5.1708947
  58.8761201  46.2078044   5.0321822  58.4555724  47.6193307   5.3823408
  59.9415368  48.0825440  18.3775846  59.6505234  48.9871070  18.2622512
  60.5772352  48.1241967  19.0919916  60.8671575  45.4602288  14.9677206
  61.4635147  45.2358311  14.2534169  60.9246546  44.7187034  15.5702653
  60.4396603  42.9141724   2.8027397  60.6922124  42.3923245   2.0410860
  59.5021162  42.7507869   2.9054080  65.4839886  41.9177502  10.6102140
  66.2702975  41.4996925  10.2592557  65.7478590  42.8223594  10.7783788
  65.6549963  47.3550352   5.3090797  65.0195796  47.4284979   6.0211701
  65.3247370  47.9443951   4.6309876  70.8848313  41.8552735  11.5135118
  71.6173485  41.2851952  11.7472948  70.1287669  41.4674336  11.9541624
  60.1592892  44.8169829   5.0051772  60.0429150  44.1414733   5.6732856
  60.2695152  44.3302203   4.1883925  62.5024433  44.2779977   8.7098461
  62.1382640  43.7510598   9.4211382  63.3591549  43.8878446   8.5364946
  62.1429920  39.3069876   3.7059809  62.3104322  40.1750113   4.0730280
  61.9527089  39.4697158   2.7821099  64.9005253  47.7686855  15.3725640
  64.6005976  48.6711894  15.2641447  64.5556313  47.5019038  16.2246793
  58.3517735  44.2200652  11.4062344  57.4268231  44.0876866  11.6140036
  58.6002148  44.9994871  11.9032286  68.3002397  40.2869395  13.0523077
  67.3919274  40.2184804  12.7581838  68.2489993  40.7641340  13.8804902
  62.1219141  41.7627534   4.6906476  62.0018766  42.2084585   5.5291956
  61.4271729  42.1112851   4.1320014  55.7126546  43.8633926  12.2406133
  55.8418927  44.1168404  13.1545545  55.0323997  44.4561634  11.9210788
  59.8826033  54.5331176   8.3396607  59.8050063  55.4839001   8.4185088
  59.2787676  54.1877048   8.9971534  70.1664043  38.4885834  14.8300951
  69.5238424  38.7818367  14.1840745  69.6618972  38.3738754  15.6354148
  67.8204207  42.2349007   5.5186810  68.7322063  42.4676394   5.3434508
  67.3113854  42.8186051   4.9561889  62.4576045  41.5946242  16.5281660
  63.3037240  42.0185655  16.6716309  62.3974682  40.9379866  17.2220223
  66.4273789  47.2174825  12.9100392  65.7982652  47.3820540  12.2076459
  66.0399451  47.6316435  13.6811356  70.3063021  48.1529263  10.2644755
  69.6214059  48.5328165   9.7141789  70.3906870  48.7624590  10.9976703
  65.6075490  39.2550610  18.1862833  65.3636422  40.0092670  17.6497109
  65.8835420  39.6335957  19.0210080  67.5613953  45.7989222  16.8640099
  67.7730848  46.4420982  16.1874480  67.5143701  44.9651539  16.3962029
  65.1640182  38.4107043  13.7676671  64.3024661  38.7088296  14.0593409
  65.1902616  38.6277442  12.8357704  61.9801751  46.9549233  10.1750477
  62.4440097  47.2336936   9.3855099  61.7158549  46.0532678   9.9923567
  58.8725832  46.5020715  13.1130240  59.4427189  46.9307983  12.4747724
  59.4633944  46.2203300  13.8114426  60.9170637  43.0772386   6.9840042
  61.6194681  43.5293430   7.4513968  60.5851266  42.4356205   7.6119935
  54.6595971  41.3355938  12.2857175  53.8695025  41.5913467  11.8097286
  55.1507219  42.1504276  12.3909216  68.6759781  48.6761178  15.0362456
  69.4977224  48.2741365  14.7545138  68.6722184  48.5729412  15.9878572
  56.6110717  41.7000518   9.2440652  55.8141880  41.8119212   9.7624148
  56.3836309  42.0387170   8.3781543  62.4416384  48.2245221  17.1923167
  62.5060817  48.6865628  18.0281339  61.7327308  47.5942586  17.3205477
  52.9433674  41.5886429  14.7172166  53.1941713  42.4733439  14.9829742
  53.4793223  41.4091030  13.9447258  76.7665774  45.0199926  11.3847428
  76.0129482  44.4507324  11.2291432  76.9013315  44.9862591  12.3318062
  62.1564402  49.8913328   7.0602147  62.0210077  50.7364864   7.4886995
  62.6974214  50.0932606   6.2968081  55.6093799  47.4088766   7.6330072
  56.1218320  48.2032017   7.7835637  56.2616512  46.7115057   7.5663674
  57.4188684  50.5254523   9.7152825  57.5955312  51.4472487   9.5273809
  58.2145517  50.2112942  10.1447205  61.5599702  37.3862787  21.3136759
  62.3009416  37.9869941  21.2341221  61.7917625  36.6440425  20.7554801
  56.7041040  42.5719155  19.5914989  56.5894556  41.6704412  19.8922087
  55.8485558  42.8182851  19.2399805  63.7832878  50.5136895  21.1902489
  63.3396732  49.7273274  20.8723394  64.4450092  50.7016045  20.5246380
  58.5419999  52.0432697  15.7163168  59.0927424  51.9149760  14.9440162
  57.7031475  52.3427586  15.3658060  65.8814116  50.7939695  19.2183890
  65.8632592  51.6148576  18.7264160  66.8034036  50.6693770  19.4434032
  65.5056865  33.4143890  15.5901041  65.1621135  34.3045532  15.5140151
  65.8735828  33.2245548  14.7270626  53.5742716  45.7377421   8.4089643
  54.4117938  46.1474429   8.1923350  53.7520984  44.7976863   8.3789837
  65.4707148  43.4052501   4.0973476  64.9553772  44.1757106   4.3361863
  65.1984457  42.7317638   4.7206537  63.0554259  38.2502202   9.1558714
  62.1995855  37.8609053   8.9764353  63.4681211  38.3294163   8.2958500
  64.5853406  35.7848546  13.5550274  64.0818201  35.7478681  12.7418079
  64.8784013  36.6941288  13.6146930  60.8296292  35.8687275  12.5616456
  61.6949288  35.6730084  12.2022345  60.8973801  35.6397627  13.4885812
  70.4441422  46.1584856   6.0326649  69.6670865  45.8196016   5.5881811
  71.1232903  46.1637479   5.3581614  65.2593451  41.2779594   5.9233257
  64.9543587  41.5925743   6.7743400  66.2123893  41.3561013   5.9660590
  63.7039883  47.4369817   7.5726211  63.1761245  46.7022576   7.2599448
  63.2027386  48.2144493   7.3266179  68.6832729  45.6318837  12.6893257
  68.0256404  46.3218099  12.7773386  69.4873128  46.0215269  13.0327243
  58.4358611  38.0989483   9.9332822  59.0102363  37.8764665   9.2006015
  59.0229593  38.1678178  10.6861424  67.4938188  43.9863210  10.7397199
  68.0070070  44.6193202  11.2418909  68.1439412  43.3864406  10.3740559
  58.7628198  40.1293944   3.9528708  57.9265510  40.4668631   4.2737982
  58.6232967  39.9942924   3.0155845  60.7381278  34.9730732   8.6607892
  60.0845691  34.6579749   8.0364507  60.6961753  34.3506473   9.3867715
  61.8492483  45.2550027   0.5761184  60.9419545  45.0239281   0.7752333
  62.3463515  44.4587646   0.7635165  64.7560562  53.9647534   3.4957870
  64.0822261  54.2679231   4.1042828  65.1426384  54.7676615   3.1463327
  63.9719019  41.4612666  12.9855539  63.0541580  41.6827613  12.8277227
  64.3879162  41.5358976  12.1267247  64.7554067  42.8604081   8.1158220
  65.5025886  43.3725478   7.8065342  65.0245656  42.5388134   8.9762613
  63.0280717  45.3562622   5.0985174  62.1191936  45.0721655   5.1957644
  63.0575801  45.7761701   4.2388481  68.2599984  48.9669211   8.8676341
  67.8062311  48.1260121   8.9241532  67.6293951  49.6030610   9.2051122
  67.2032904  39.8961198  10.0977009  66.4655661  39.3838584  10.4287252
  67.4559677  39.4561579   9.2860286  66.7032923  50.8045708   9.8026160
  66.9955898  51.3650765   9.0838525  67.2131544  51.0974269  10.5579319
  67.3044531  32.6737450  10.6918778  67.6103408  31.8134813  10.4044693
  68.0297136  33.2655070  10.4917772  53.5968887  43.0768136   9.0800376
  53.3993287  42.4837497   8.3551443  53.0415551  42.7720346   9.7976315
  61.5765611  42.9691243  11.1994969  61.6314221  42.0165079  11.1237446
  60.7656813  43.1250682  11.6836268  62.7256805  46.8971366   2.4373252
  62.2876234  46.1807225   1.9778890  63.4667245  47.1247480   1.8758344
  59.5157971  41.5868302   8.9585348  58.7025836  41.8862473   9.3650540
  60.0116965  41.1923991   9.6759830  61.6666549  51.5826059  10.8919613
  61.6242727  51.8086906   9.9628145  62.5829247  51.3489434  11.0405414
  65.1132182  42.0510127  17.7900242  65.4681570  42.2781600  18.6494708
  65.7604314  42.3828504  17.1677497  70.8429919  45.1728563   8.4949571
  70.7047818  45.3630159   7.5670760  70.4866138  45.9347946   8.9517622
  59.0072045  39.1586658  14.5746583  59.6471425  39.0175417  13.8769546
  58.1749576  38.8721171  14.1985185  70.8699299  47.2405090  13.5060843
  71.3035806  47.1480379  14.3543897  71.5830880  47.2162590  12.8680859
  59.7832349  48.4589088  10.6881576  60.5772948  47.9639408  10.4864151
  59.0724042  47.9306951  10.3249281  64.6027194  50.8407184  15.0393943
  64.6564216  51.4098120  15.8071659  63.7341975  51.0109069  14.6747980
  56.0915113  42.6032170   6.7641328  55.1612701  42.5416626   6.9811290
  56.1872585  42.0808123   5.9677969  56.0100662  39.1286983   9.3519570
  56.2707479  40.0432316   9.2428730  56.8317834  38.6611425   9.5016183
  57.4825587  40.5424740  16.5218394  58.1548641  40.3342102  15.8731043
  56.6555374  40.3446826  16.0823627  71.7314848  47.2828790  16.0393728
  71.9250739  48.1874601  16.2853003  71.6315467  46.8236209  16.8732313
  63.5615294  45.0067446  16.5980875  64.4907354  45.1578605  16.4249842
  63.1406324  45.0951467  15.7429522  62.3603625  49.0318110  14.3679413
  62.2214711  48.6636895  15.2405351  61.5718222  49.5465750  14.1963370
  62.9551777  54.1327207   5.7104949  63.1303533  53.6615250   6.5250572
  62.2684565  54.7592973   5.9386210  63.9108841  48.4099713  11.7568250
  63.5758673  48.3700483  12.6525900  63.4112786  47.7444429  11.2838661
  57.8853084  43.8167343  17.2820832  57.7472882  43.0847582  17.8832371
  58.7958008  43.7276243  17.0005019  66.8468032  45.7555747   2.0305310
  66.2297203  45.0302575   1.9338363  66.3784521  46.5165108   1.6872384
  60.5135385  43.5287302  16.7704511  61.2235004  42.8880495  16.7291130
  60.4704693  43.7800197  17.6930692  68.5022164  50.4654656  19.6911090
  68.4434710  49.7813876  19.0241673  68.9041682  51.2073646  19.2391716
  59.2264319  40.5152520  18.5900151  58.6901676  40.0643259  19.2421747
  58.6381028  40.6498429  17.8470615  57.5212863  57.2816570  12.4844809
  57.7609461  57.9135094  13.1623828  56.6782059  56.9304610  12.7710169
  58.6366578  39.9741172   1.1526614  57.7596044  39.8529972   0.7888861
  59.1124331  39.1827250   0.9005503  50.1568718  44.7618331  11.2468122
  50.8439758  44.4480061  10.6589137  50.0016847  45.6659696  10.9735373
  54.9603440  39.6508528  15.6753145  54.8761629  39.0434197  14.9403555
  54.1386147  40.1417546  15.6762642  62.0340724  53.0895692  14.8886313
  61.9610896  53.8950663  15.4005618  61.5918118  53.2887658  14.0634335
  61.8230504  52.3267462   8.3989135  61.0398026  52.8689142   8.4927359
  62.5223249  52.8441442   8.7983376  65.1327154  38.1362091  11.0423340
  65.6295854  37.3832054  10.7224410  64.3614136  38.1726408  10.4766550
  72.9856912  43.8402457  12.6841632  72.9746788  44.7227172  12.3135565
  72.1174291  43.4874008  12.4896169  64.4939408  52.9882526  17.0444472
  65.2067380  53.6229991  16.9720373  64.0029437  53.0846392  16.2284474
  66.2156935  46.8933779   8.6161764  65.2813214  47.0135241   8.4466468
  66.3933603  45.9906245   8.3521773  61.7162123  40.2779474  10.7695025
  61.3459910  39.7250515  11.4575930  62.2121215  39.6737608  10.2170025
  69.6029486  42.7351098   9.1511798  70.0689938  43.5679090   9.0772100
  70.0536987  42.2696080   9.8557056  59.5451322  50.7376969  17.8650043
  60.2460781  51.3713452  18.0179437  59.0746437  51.0791701  17.1045682
  67.6705717  49.0794919   6.1497950  67.9465561  48.9651514   7.0591824
  66.8010216  48.6812404   6.1110123  67.5746149  35.1031685  13.1902699
  66.6609229  35.3335912  13.3584906  68.0039250  35.1870129  14.0416731
  67.3452607  43.2921577  15.6902593  66.6924058  43.5397484  15.0355046
  67.7232987  42.4785715  15.3565070  64.3059781  53.3281270   9.7930763
  64.4882176  52.5102926  10.2558516  65.1292767  53.5448962   9.3555653
  64.6401947  52.2549455   7.0545812  65.1689713  51.7441910   6.4415974
  64.9030166  51.9391985   7.9191345  55.1419040  50.2713324  14.7981145
  55.7272476  49.5257012  14.9309050  54.9443878  50.5817281  15.6817809
  57.9957695  53.3064572   9.8143588  57.3268070  53.7910700   9.3307628
  57.8570565  53.5533792  10.7286966  49.7336694  42.8418925  13.5185589
  49.7720794  42.3082515  14.3122707  49.2276987  42.3154130  12.8996566
  62.1362963  55.3408315  16.4126246  62.6881271  55.5039937  17.1775331
  62.4769157  55.9312753  15.7406271  57.1127457  37.6883465  17.0148131
  57.1768783  38.5498296  16.6025529  57.0494577  37.0757467  16.2820489
  56.5879729  39.7606598  20.6621165  57.2151768  39.3783675  21.2758690
  55.7307648  39.5420800  21.0276858  53.3645272  41.5683027   6.5939520
  53.6598713  40.6593705   6.5406574  52.4633308  41.5470766   6.2720522
  65.2731351  53.2890291  13.3989928  65.1482490  52.4880031  12.8900874
  65.9310442  53.7836484  12.9103898  56.8939519  39.6439023  12.5767069
  56.1726105  40.2574991  12.4374542  57.6832775  40.1796788  12.4983715
  67.3366259  51.0899311  15.0269478  66.3896595  50.9704662  14.9547805
  67.6849032  50.2021809  15.1095740  59.6965832  36.9793450  18.8507720
  60.2200234  37.2255746  19.6134030  59.4778166  37.8113485  18.4310858
  55.0933113  39.2497125   6.7178845  54.7645820  38.3694503   6.5353951
  55.4472484  39.1944793   7.6055234  64.3412692  50.8852027  11.2273831
  64.1937655  49.9568735  11.4081401  65.1666186  50.9072118  10.7430906
  58.2074937  39.5370094   7.0854323  58.5471009  40.0656016   6.3632931
  58.6547057  39.8750500   7.8612889  67.9446814  51.7080586  12.3138703
  68.8693362  51.5023447  12.1763155  67.7762118  51.4596987  13.2228045
  60.9018377  37.9207145  16.5357391  60.5615198  37.1214958  16.9378071
  60.1957384  38.2208856  15.9634224  61.5534849  35.0056457  14.9884714
  62.3760919  34.5316936  14.8663604  61.7972913  35.7846941  15.4883400
  60.1943084  38.0344716   5.2847616  60.9151446  38.4125969   4.7811332
  59.5708388  38.7533593   5.3882594  64.3374207  38.7389865   6.2205948
  64.5537821  39.6214503   5.9194776  63.8568274  38.3476078   5.4911590
  59.0773428  41.6975578  12.7976693  58.9318009  42.0115881  13.6900974
  58.5998632  42.3160478  12.2447591  60.9369811  38.6878126  12.8457582
  60.9231380  37.7919219  12.5089880  61.6542239  38.6948790  13.4795868
  62.7895942  39.1215466  14.8910710  62.5313719  40.0432537  14.8895040
  62.2580982  38.7245901  15.5811174  67.7342130  52.2266253   7.6700795
  67.9079008  51.6612676   6.9174647  68.2271022  53.0267148   7.4880285
  53.5519090  44.2380922  15.7364354  53.0072558  45.0140730  15.8684628
  54.4298440  44.5851727  15.5783475  60.3406707  37.5692506   8.1145152
  60.4622618  36.6409153   8.3136040  60.0508749  37.5831192   7.2023468
  63.2097897  35.2547417  11.2511872  63.2319594  35.3186750  10.2963852
  63.6265956  34.4151925  11.4452378  73.5881522  44.9902676   9.2891095
  74.0312668  44.2410002   8.8910218  72.7108032  44.9812813   8.9064827
  68.7217303  51.5433018   4.7697693  69.4168208  52.1639710   4.9885008
  69.0640453  50.6928369   5.0450071  54.3385112  43.3650819  18.6294511
  53.5966848  43.5133454  19.2159141  54.0177856  43.6259084  17.7661260
  70.6208726  48.9932723   6.2985024  71.1460050  49.3319996   5.5734344
  70.5331079  48.0579739   6.1148159  62.2828775  52.9066797  18.4274901
  62.5915901  52.6615944  19.2997600  63.0804257  53.1113435  17.9393771
  62.3049387  55.0604707  10.6580277  61.8654377  54.5681085  11.3513134
  63.0557504  54.5177674  10.4172352  54.7841726  51.2516247  10.6604905
  55.6099746  50.9520019  10.2803549  54.4335778  50.4823870  11.1094694
  59.7523259  50.6042716  12.7302579  59.1303268  49.9413421  12.4304807
  60.4228126  50.6303848  12.0476227  52.9850331  49.1702574  11.6193839
  52.1482239  48.7424748  11.4377840  52.9573976  49.3635017  12.5564630
  59.3136766  49.1546639   6.2061039  59.4624886  49.8382103   5.5527712
  60.1203209  49.1351729   6.7210495  62.0547075  39.8355876  19.0781443
  61.1850384  40.1289442  18.8064032  62.2906555  40.4196321  19.7988707
  71.9318704  48.8955035  19.1610972  71.6403512  49.2585015  19.9974433
  71.3190835  48.1822043  18.9824304  73.1314386  46.4607915  11.6813542
  73.9661278  46.8997719  11.8451103  73.2673515  45.9846568  10.8621788
  70.1805892  44.0187649  17.6291030  70.6560014  44.2115296  16.8209881
  69.2571458  44.0746835  17.3834414  57.0689399  45.1811817   7.2122108
  56.8235441  44.2774147   7.4102318  57.2385313  45.1828967   6.2701586
  64.7586109  36.0535493  16.5946864  65.2768053  36.7896520  16.2693352
  64.4041241  36.3599486  17.4293623  56.3385046  40.9140174   4.7108270
  55.6454291  40.9884529   4.0548306  56.0936798  40.1500518   5.2329787
  65.0098703  32.4735776  12.1147760  65.2900457  31.8058965  12.7408187
  65.7949310  32.6664871  11.6022424  62.8132171  51.6494769   3.6772787
  62.2406138  52.2684957   3.2243259  63.3864965  52.1994131   4.2112709
  68.8807561  40.8953410  15.8619336  69.8324984  40.9951507  15.8831560
  68.7111012  40.1031678  16.3717420  66.9021941  37.9808993  16.0478737
  66.3071873  38.2614006  15.3525225  66.6171637  38.4702894  16.8195478
  66.0329431  51.9331920   4.8081369  66.9660104  51.8677481   5.0114245
  65.9452644  52.7688186   4.3495902  68.6617448  51.2497790   1.7685317
  68.5831079  50.9157654   2.6621075  69.4827115  51.7419558   1.7676789
  71.3595639  44.1159529  14.9761635  71.3271959  43.1775530  15.1621319
  71.9696263  44.1943566  14.2427460  63.1978970  42.9855582   1.0188839
  64.1438075  42.8561790   1.0877257  62.8193215  42.2470244   1.4958267
  71.5090127  40.9070573  15.0219918  70.9929176  40.1229029  14.8349847
  72.3930076  40.5789289  15.1866438  69.1700854  34.6511588  10.9815731
  68.9725676  34.3426676  11.8659063  69.7800560  35.3773227  11.1113661
  77.1772189  45.1775536  14.1167672  77.9075577  44.9160824  14.6775375
  76.5679134  44.4404258  14.1569740  75.2587486  43.3183399  14.7142123
  74.5320650  43.1839364  14.1058615  74.8434773  43.6260227  15.5198841
  61.3821887  40.9105559   0.9543725  60.4753342  40.6138671   1.0306438
  61.6597868  40.6135377   0.0878011  52.2999827  42.2311922  11.4042771
  51.9802612  41.3777230  11.1117145  51.7533256  42.4460500  12.1600738
  56.0779735  44.9474363  15.1212277  56.2965745  45.8791471  15.1400311
  56.4905509  44.5882337  15.9067081  62.9983953  35.4542448   7.1087966
  62.1884681  35.1089533   7.4843212  63.6868370  35.1449992   7.6975577
  64.9274501  34.5320495   8.7312262  65.4805540  34.9515949   9.3902286
  65.1644587  33.6056243   8.7735218  60.1520672  37.7692494   1.0955704
  61.0139836  38.0947392   1.3551521  60.3371016  36.9823990   0.5828769
  52.1688087  45.8514834  13.3735892  51.4751559  45.4368786  12.8605847
  52.9161078  45.8935370  12.7769311  68.3053308  36.6421020   8.2390927
  67.7251977  37.3005824   7.8568979  68.0389241  35.8198365   7.8278344
  66.7556874  36.0426078  10.4412247  67.2556653  36.1542613   9.6326566
  67.3992482  35.7387131  11.0813055  54.0824830  45.7833087  11.2501907
  54.0595518  45.8820775  10.2983790  54.3925466  46.6298238  11.5719073
  56.7412208  47.8409242  15.3648522  57.6955461  47.8093185  15.2978453
  56.5424731  47.3799866  16.1798748  57.3311590  46.4110358  17.9319319
  58.1504479  46.9054437  17.9554157  57.6048398  45.4942327  17.9036887
  67.0878186  38.8021111   7.2947275  66.2004041  39.0870761   7.0767470
  67.5032175  38.6414874   6.4474552  70.4392722  38.8267632  11.0101614
  71.2153112  39.3164084  11.2826231  69.7140856  39.2525686  11.4673484
  72.8765281  39.5395251  12.0675555  73.4709772  39.2990987  11.3568863
  72.9491865  38.8202381  12.6949091  55.0962437  53.3828862  12.3818720
  54.9616905  52.6229263  11.8156718  54.6794499  54.1069762  11.9147509
  66.2321400  48.5665785   1.3895295  66.9357250  48.7715788   2.0052951
  65.5084048  49.1342547   1.6544378  67.0619210  44.3175647   7.5097565
  67.0054411  44.7744198   6.6705198  67.6147552  43.5566331   7.3320408
  70.8724016  40.1065379   8.3347685  70.6160950  39.7062014   9.1655892
  70.2476884  40.8209172   8.2097824  75.1836354  42.8461452  10.8418976
  74.6235912  42.9154641  11.6150538  74.5779857  42.6702436  10.1218472
  58.2531562  54.2798179  12.5937162  58.1363947  55.2243611  12.4915853
  57.4324009  53.9771740  12.9822962  68.1408097  49.0048315   3.4393755
  68.9753701  48.5729513   3.2571230  67.9792440  48.8330328   4.3670649
  67.7953989  45.5080428   4.8050094  67.7402793  45.3424699   3.8638538
  67.1700044  46.2156461   4.9612284  52.5846504  40.7448492  18.6311517
  53.2305368  40.2347446  19.1198742  52.3763655  41.4817174  19.2054942
  61.1050115  35.0088537   4.3835413  61.0928784  35.9530377   4.5403684
  61.9973537  34.8258682   4.0894874  59.2786077  54.9326441  15.8093091
  60.1813323  54.9650051  16.1259586  59.0523447  54.0026892  15.8239427
  61.0339679  53.6857427  12.4703169  60.0835310  53.6859289  12.3567542
  61.3372165  52.9390162  11.9539204  64.9202234  31.6031314   8.6381349
  64.1534630  31.0489800   8.7838032  65.3312939  31.6753182   9.4995501
  76.7692372  59.5217966  13.5348932  77.4070782  59.4024713  12.8312272
  76.6513215  60.4698810  13.5936884  73.5782078  59.4745394  13.4710456
  73.2400590  59.3586458  12.5830991  74.4471847  59.0736559  13.4511463
  69.4368894  61.3280870   9.4607347  68.8733759  61.2370807   8.6923635
  69.3221289  60.5080775   9.9409840  74.0601861  60.6280246  19.4296662
  74.0490502  60.2333044  18.5577166  74.2222501  59.8946318  20.0230433
  66.9833326  62.8232062  12.2991568  67.7754618  62.4822886  11.8837867
  67.2229976  62.9327037  13.2193721  68.9424080  62.0840975   5.1708947
  69.7154956  61.5369962   5.0321822  69.2949479  62.9485224   5.3823408
  70.7809122  63.4117357  18.3775846  70.4898988  64.3162988  18.2622512
  71.4166107  63.4533885  19.0919916  71.7065329  60.7894206  14.9677206
  72.3028902  60.5650228  14.2534169  71.7640301  60.0478951  15.5702653
  71.2790358  58.2433641   2.8027397  71.5315878  57.7215162   2.0410860
  70.3414917  58.0799787   2.9054080  76.3233641  57.2469420  10.6102140
  77.1096730  56.8288843  10.2592557  76.5872345  58.1515512  10.7783788
  81.7242068  57.1844653  11.5135118  82.4567240  56.6143870  11.7472948
  80.9681423  56.7966253  11.9541624  70.9986646  60.1461747   5.0051772
  70.8822905  59.4706651   5.6732856  71.1088906  59.6594121   4.1883925
  73.3418187  59.6071894   8.7098461  72.9776395  59.0802515   9.4211382
  74.1985303  59.2170363   8.5364946  79.2467488  50.8966227  15.9729727
  78.9150813  51.7661638  15.7490942  78.6513101  50.5802511  16.6523757
  72.9823674  54.6361794   3.7059809  73.1498077  55.5042030   4.0730280
  72.7920843  54.7989076   2.7821099  75.7399008  63.0978773  15.3725640
  75.4399731  64.0003812  15.2641447  75.3950067  62.8310956  16.2246793
  69.1911489  59.5492570  11.4062344  68.2661986  59.4168784  11.6140036
  69.4395902  60.3286789  11.9032286  79.1396151  55.6161313  13.0523077
  78.2313029  55.5476721  12.7581838  79.0883747  56.0933258  13.8804902
  72.9612895  57.0919451   4.6906476  72.8412520  57.5376502   5.5291956
  72.2665484  57.4404769   4.1320014  66.5520300  59.1925843  12.2406133
  66.6812681  59.4460322  13.1545545  65.8717751  59.7853551  11.9210788
  70.7219787  69.8623093   8.3396607  70.6443817  70.8130918   8.4185088
  70.1181431  69.5168966   8.9971534  73.2137017  57.0350959  20.9957974
  72.4370351  57.5944879  20.9860839  73.8527580  57.5207742  21.5172844
  81.0057798  53.8177751  14.8300951  80.3632178  54.1110285  14.1840745
  80.5012726  53.7030672  15.6354148  78.6597961  57.5640925   5.5186810
  79.5715818  57.7968311   5.3434508  78.1507609  58.1477969   4.9561889
  71.4683389  59.8436412  20.5575941  72.2098074  60.3821456  20.2810765
  70.7620375  60.4702701  20.7147493  76.9438729  61.9865552  19.1548103
  77.3522085  61.5447963  18.4102735  76.2215991  61.4118180  19.4082296
  73.2969799  56.9238159  16.5281660  74.1430994  57.3477573  16.6716309
  73.2368437  56.2671784  17.2220223  77.2667544  62.5466743  12.9100392
  76.6376406  62.7112457  12.2076459  76.8793206  62.9608353  13.6811356
  81.1456776  63.4821181  10.2644755  80.4607814  63.8620082   9.7141789
  81.2300625  64.0916508  10.9976703  76.4469244  54.5842528  18.1862833
  76.2030176  55.3384588  17.6497109  76.7229175  54.9627875  19.0210080
  78.4007707  61.1281140  16.8640099  78.6124602  61.7712900  16.1874480
  78.3537455  60.2943456  16.3962029  76.0033936  53.7398961  13.7676671
  75.1418415  54.0380214  14.0593409  76.0296371  53.9569359  12.8357704
  72.8195506  62.2841151  10.1750477  73.2833851  62.5628854   9.3855099
  72.5552304  61.3824596   9.9923567  69.7119587  61.8312633  13.1130240
  70.2820944  62.2599901  12.4747724  70.3027699  61.5495217  13.8114426
  71.7564392  58.4064304   6.9840042  72.4588435  58.8585347   7.4513968
  71.4245020  57.7648122   7.6119935  70.2044753  56.9976060  21.3591251
  69.5743414  57.6792341  21.5926648  70.0980841  56.8859142  20.4144389
  65.4989726  56.6647856  12.2857175  64.7088780  56.9205385  11.8097286
  65.9900973  57.4796194  12.3909216  79.5153535  64.0053095  15.0362456
  80.3370979  63.6033283  14.7545138  79.5115938  63.9021330  15.9878572
  67.4504471  57.0292435   9.2440652  66.6535634  57.1411130   9.7624148
  67.2230063  57.3679088   8.3781543  73.2810139  63.5537139  17.1923167
  73.3454571  64.0157546  18.0281339  72.5721063  62.9234504  17.3205477
  63.7827429  56.9178347  14.7172166  64.0335467  57.8025357  14.9829742
  64.3186977  56.7382948  13.9447258  87.6059528  60.3491844  11.3847428
  86.8523237  59.7799242  11.2291432  87.7407069  60.3154508  12.3318062
  72.9958156  65.2205246   7.0602147  72.8603831  66.0656782   7.4886995
  73.5367969  65.4224524   6.2968081  69.4825496  51.2996826  23.7216502
  69.0892441  50.7463025  24.3964147  70.2991636  51.6107404  24.1123020
  66.4487554  62.7380684   7.6330072  66.9612074  63.5323934   7.7835637
  67.1010267  62.0406975   7.5663674  68.2582438  65.8546440   9.7152825
  68.4349067  66.7764405   9.5273809  69.0539272  65.5404860  10.1447205
  72.3993457  52.7154705  21.3136759  73.1403170  53.3161858  21.2341221
  72.6311380  51.9732343  20.7554801  67.5434795  57.9011072  19.5914989
  67.4288310  56.9996330  19.8922087  66.6879313  58.1474769  19.2399805
  74.6226633  65.8428813  21.1902489  74.1790487  65.0565191  20.8723394
  75.2843846  66.0307963  20.5246380  69.3813754  67.3724614  15.7163168
  69.9321179  67.2441678  14.9440162  68.5425230  67.6719503  15.3658060
  76.7207871  66.1231613  19.2183890  76.7026346  66.9440494  18.7264160
  77.6427791  65.9985688  19.4434032  73.1780925  63.6375742  20.0607399
  73.7109262  62.8764030  19.8306707  72.6495006  63.3449394  20.8031553
  76.3450620  48.7435808  15.5901041  76.0014889  49.6337450  15.5140151
  76.7129582  48.5537466  14.7270626  64.4136470  61.0669338   8.4089643
  65.2511692  61.4766347   8.1923350  64.5914738  60.1268781   8.3789837
  76.3100903  58.7344419   4.0973476  75.7947526  59.5049024   4.3361863
  76.0378211  58.0609555   4.7206537  73.8948014  53.5794120   9.1558714
  73.0389610  53.1900970   8.9764353  74.3074965  53.6586081   8.2958500
  75.4247160  51.1140463  13.5550274  74.9211956  51.0770598  12.7418079
  75.7177767  52.0233206  13.6146930  71.6690046  51.1979193  12.5616456
  72.5343043  51.0022002  12.2022345  71.7367555  50.9689545  13.4885812
  76.0987206  56.6071511   5.9233257  75.7937341  56.9217660   6.7743400
  77.0517648  56.6852931   5.9660590  74.5433638  62.7661735   7.5726211
  74.0154999  62.0314494   7.2599448  74.0421140  63.5436411   7.3266179
  79.5226484  60.9610755  12.6893257  78.8650158  61.6510016  12.7773386
  80.3266883  61.3507187  13.0327243  69.2752365  53.4281401   9.9332822
  69.8496117  53.2056582   9.2006015  69.8623348  53.4970095  10.6861424
  78.3331942  59.3155128  10.7397199  78.8463824  59.9485120  11.2418909
  78.9833166  58.7156323  10.3740559  69.6021952  55.4585862   3.9528708
  68.7659265  55.7960548   4.2737982  69.4626722  55.3234842   3.0155845
  71.5775033  50.3022650   8.6607892  70.9239445  49.9871667   8.0364507
  71.5355507  49.6798390   9.3867715  74.8112773  56.7904583  12.9855539
  73.8935335  57.0119530  12.8277227  75.2272917  56.8650894  12.1267247
  75.5947821  58.1895999   8.1158220  76.3419640  58.7017396   7.8065342
  75.8639411  57.8680052   8.9762613  73.8674471  60.6854540   5.0985174
  72.9585690  60.4013572   5.1957644  73.8969555  61.1053618   4.2388481
  79.0993739  64.2961129   8.8676341  78.6456066  63.4552039   8.9241532
  78.4687705  64.9322528   9.2051122  78.0426658  55.2253115  10.0977009
  77.3049415  54.7130501  10.4287252  78.2953432  54.7853497   9.2860286
  77.5426678  66.1337626   9.8026160  77.8349652  66.6942683   9.0838525
  78.0525298  66.4266187  10.5579319  78.1438286  48.0029367  10.6918778
  78.4497162  47.1426731  10.4044693  78.8690890  48.5946987  10.4917772
  64.4362642  58.4060054   9.0800376  64.2387041  57.8129415   8.3551443
  63.8809306  58.1012264   9.7976315  72.4159365  58.2983160  11.1994969
  72.4707975  57.3456997  11.1237446  71.6050567  58.4542599  11.6836268
  70.3551725  56.9160220   8.9585348  69.5419591  57.2154391   9.3650540
  70.8510719  56.5215909   9.6759830  72.5060303  66.9117977  10.8919613
  72.4636482  67.1378823   9.9628145  73.4223002  66.6781352  11.0405414
  75.9525937  57.3802044  17.7900242  76.3075325  57.6073518  18.6494708
  76.5998068  57.7120421  17.1677497  81.6823674  60.5020480   8.4949571
  81.5441572  60.6922076   7.5670760  81.3259893  61.2639863   8.9517622
  69.8465800  54.4878576  14.5746583  70.4865179  54.3467335  13.8769546
  69.0143330  54.2013089  14.1985185  81.7093053  62.5697007  13.5060843
  82.1429560  62.4772296  14.3543897  82.4224634  62.5454508  12.8680859
  70.6226104  63.7881006  10.6881576  71.4166702  63.2931326  10.4864151
  69.9117796  63.2598869  10.3249281  75.4420948  66.1699101  15.0393943
  75.4957971  66.7390038  15.8071659  74.5735730  66.3400987  14.6747980
  66.9308867  57.9324088   6.7641328  66.0006455  57.8708543   6.9811290
  67.0266339  57.4100040   5.9677969  66.8494416  54.4578901   9.3519570
  67.1101234  55.3724234   9.2428730  67.6711589  53.9903343   9.5016183
  68.3219342  55.8716658  16.5218394  68.9942395  55.6634020  15.8731043
  67.4949128  55.6738744  16.0823627  82.5708603  62.6120708  16.0393728
  82.7644493  63.5166519  16.2853003  82.4709221  62.1528127  16.8732313
  74.2244914  52.4978599  18.5384055  73.5772829  53.1968548  18.4448532
  74.9945929  52.9314743  18.9060303  77.6323712  62.7627451  21.6134609
  77.4809218  62.5338002  20.6964692  77.6228391  63.7198052  21.6265954
  74.4009048  60.3359364  16.5980875  75.3301108  60.4870523  16.4249842
  73.9800078  60.4243384  15.7429522  73.1997380  64.3610028  14.3679413
  73.0608466  63.9928812  15.2405351  72.4111976  64.8757667  14.1963370
  74.7502595  63.7391631  11.7568250  74.4152428  63.6992401  12.6525900
  74.2506541  63.0736347  11.2838661  68.7246839  59.1459261  17.2820832
  68.5866637  58.4139500  17.8832371  69.6351762  59.0568161  17.0005019
  71.3529140  58.8579220  16.7704511  72.0628758  58.2172412  16.7291130
  71.3098448  59.1092115  17.6930692  79.3415918  65.7946573  19.6911090
  79.2828464  65.1105793  19.0241673  79.7435437  66.5365563  19.2391716
  70.0658074  55.8444438  18.5900151  69.5295431  55.3935176  19.2421747
  69.4774782  55.9790347  17.8470615  68.3606617  72.6108487  12.4844809
  68.6003215  73.2427011  13.1623828  67.5175814  72.2596527  12.7710169
  69.4760333  55.3033089   1.1526614  68.5989799  55.1821890   0.7888861
  69.9518086  54.5119168   0.9005503  79.3433326  63.7586157  17.9225070
  78.4560104  63.4212079  18.0451469  79.9131877  63.0269189  18.1593836
  60.9962473  60.0910249  11.2468122  61.6833513  59.7771979  10.6589137
  60.8410601  60.9951614  10.9735373  65.7997195  54.9800446  15.6753145
  65.7155384  54.3726115  14.9403555  64.9779901  55.4709464  15.6762642
  72.8734479  68.4187610  14.8886313  72.8004650  69.2242581  15.4005618
  72.4311872  68.6179575  14.0634335  72.6624259  67.6559380   8.3989135
  71.8791780  68.1981060   8.4927359  73.3617004  68.1733359   8.7983376
  75.9720909  53.4654009  11.0423340  76.4689608  52.7123971  10.7224410
  75.2007890  53.5018326  10.4766550  83.8250666  59.1694375  12.6841632
  83.8140542  60.0519090  12.3135565  82.9568046  58.8165925  12.4896169
  75.3333162  68.3174444  17.0444472  76.0461135  68.9521908  16.9720373
  74.8423191  68.4138310  16.2284474  77.0550689  62.2225696   8.6161764
  76.1206968  62.3427159   8.4466468  77.2327358  61.3198163   8.3521773
  72.5555877  55.6071392  10.7695025  72.1853665  55.0542432  11.4575930
  73.0514970  55.0029526  10.2170025  80.4423241  58.0643016   9.1511798
  80.9083693  58.8971007   9.0772100  80.8930741  57.5987997   9.8557056
  70.3845076  66.0668887  17.8650043  71.0854536  66.7005370  18.0179437
  69.9140191  66.4083619  17.1045682  78.4139903  50.4323603  13.1902699
  77.5002983  50.6627829  13.3584906  78.8433005  50.5162047  14.0416731
  78.1846362  58.6213495  15.6902593  77.5317812  58.8689402  15.0355046
  78.5626742  57.8077633  15.3565070  75.1453536  68.6573188   9.7930763
  75.3275930  67.8394844  10.2558516  75.9686522  68.8740880   9.3555653
  74.2333935  59.3633306  22.1768630  73.5574572  59.2627435  22.8471005
  75.0561569  59.2072519  22.6404627  65.9812794  65.6005242  14.7981145
  66.5666231  64.8548930  14.9309050  65.7837633  65.9109199  15.6817809
  68.8351449  68.6356490   9.8143588  68.1661825  69.1202617   9.3307628
  68.6964319  68.8825710  10.7286966  60.5730449  58.1710842  13.5185589
  60.6114548  57.6374433  14.3122707  60.0670742  57.6446048  12.8996566
  72.9756718  70.6700233  16.4126246  73.5275026  70.8331855  17.1775331
  73.3162911  71.2604671  15.7406271  67.9521211  53.0175383  17.0148131
  68.0162538  53.8790214  16.6025529  67.8888331  52.4049385  16.2820489
  67.4273484  55.0898515  20.6621165  68.0545522  54.7075593  21.2758690
  66.5701402  54.8712717  21.0276858  77.8267592  65.4961491  22.2674901
  78.3707496  66.1091449  21.7729855  77.2454437  66.0541069  22.7841914
  64.2039026  56.8974945   6.5939520  64.4992467  55.9885623   6.5406574
  63.3027062  56.8762684   6.2720522  76.1125105  68.6182209  13.3989928
  75.9876245  67.8171948  12.8900874  76.7704196  69.1128402  12.9103898
  67.7333273  54.9730941  12.5767069  67.0119859  55.5866909  12.4374542
  68.5226529  55.5088706  12.4983715  78.1760014  66.4191229  15.0269478
  77.2290349  66.2996580  14.9547805  78.5242787  65.5313727  15.1095740
  70.5359587  52.3085368  18.8507720  71.0593989  52.5547664  19.6134030
  70.3171920  53.1405402  18.4310858  65.9326868  54.5789042   6.7178845
  65.6039574  53.6986421   6.5353951  66.2866239  54.5236711   7.6055234
  75.1806447  66.2143945  11.2273831  75.0331409  65.2860652  11.4081401
  76.0059940  66.2364036  10.7430906  69.0468691  54.8662012   7.0854323
  69.3864764  55.3947933   6.3632931  69.4940812  55.2042418   7.8612889
  78.7840569  67.0372504  12.3138703  79.7087116  66.8315365  12.1763155
  78.6155872  66.7888905  13.2228045  71.7412132  53.2499063  16.5357391
  71.4008952  52.4506876  16.9378071  71.0351138  53.5500774  15.9634224
  72.3928604  50.3348375  14.9884714  73.2154673  49.8608853  14.8663604
  72.6366667  51.1138859  15.4883400  71.0336838  53.3636634   5.2847616
  71.7545201  53.7417886   4.7811332  70.4102142  54.0825510   5.3882594
  75.1767961  54.0681783   6.2205948  75.3931576  54.9506420   5.9194776
  74.6962028  53.6767996   5.4911590  69.9167183  57.0267496  12.7976693
  69.7711763  57.3407799  13.6900974  69.4392386  57.6452396  12.2447591
  71.7763565  54.0170044  12.8457582  71.7625134  53.1211137  12.5089880
  72.4935994  54.0240708  13.4795868  73.6289696  54.4507384  14.8910710
  73.3707474  55.3724455  14.8895040  73.0974737  54.0537819  15.5811174
  64.3912845  59.5672840  15.7364354  63.8466313  60.3432648  15.8684628
  65.2692195  59.9143645  15.5783475  71.1800461  52.8984424   8.1145152
  71.3016373  51.9701070   8.3136040  70.8902504  52.9123110   7.2023468
  74.0491652  50.5839334  11.2511872  74.0713349  50.6478668  10.2963852
  74.4659711  49.7443843  11.4452378  84.4275276  60.3194594   9.2891095
  84.8706422  59.5701919   8.8910218  83.5501786  60.3104730   8.9064827
  65.1778867  58.6942736  18.6294511  64.4360603  58.8425372  19.2159141
  64.8571611  58.9551002  17.7661260  73.1222529  68.2358715  18.4274901
  73.4309656  67.9907861  19.2997600  73.9198011  68.4405353  17.9393771
  73.1443141  70.3896624  10.6580277  72.7048132  69.8973003  11.3513134
  73.8951258  69.8469592  10.4172352  65.6235480  66.5808165  10.6604905
  66.4493500  66.2811937  10.2803549  65.2729532  65.8115788  11.1094694
  70.5917013  65.9334633  12.7302579  69.9697023  65.2705338  12.4304807
  71.2621880  65.9595765  12.0476227  63.8244085  64.4994492  11.6193839
  62.9875994  64.0716666  11.4377840  63.7967731  64.6926935  12.5564630
  70.6641541  54.4116421  22.3235085  70.7129696  55.2878544  21.9412854
  71.2064055  53.8693814  21.7506728  81.1496387  64.9557545  21.6036222
  80.3591930  64.9381684  21.0640721  80.9129741  65.4945838  22.3585259
  81.2694262  61.8050011  18.9168950  81.3192267  61.6400018  19.8584473
  81.1608185  60.9377270  18.5266831  70.1530520  64.4838557   6.2061039
  70.3018641  65.1674021   5.5527712  70.9596964  64.4643647   6.7210495
  78.5598024  57.7880939  20.2328257  79.4607887  57.6487404  19.9412255
  78.6345999  57.9535394  21.1726435  72.8940829  55.1647794  19.0781443
  72.0244139  55.4581360  18.8064032  73.1300310  55.7488239  19.7988707
  82.7712458  64.2246953  19.1610972  82.4797267  64.5876933  19.9974433
  82.1584590  63.5113961  18.9824304  83.9708141  61.7899832  11.6813542
  84.8055032  62.2289636  11.8451103  84.1067270  61.3138486  10.8621788
  81.0199647  59.3479567  17.6291030  81.4953768  59.5407213  16.8209881
  80.0965212  59.4038753  17.3834414  67.9083153  60.5103734   7.2122108
  67.6629195  59.6066064   7.4102318  68.0779068  60.5120885   6.2701586
  75.5979863  51.3827411  16.5946864  76.1161807  52.1188438  16.2693352
  75.2434996  51.6891404  17.4293623  67.1778801  56.2432092   4.7108270
  66.4848046  56.3176447   4.0548306  66.9330553  55.4792436   5.2329787
  75.8492457  47.8027693  12.1147760  76.1294211  47.1350882  12.7408187
  76.6343064  47.9956789  11.6022424  79.7201316  56.2245327  15.8619336
  80.6718739  56.3243425  15.8831560  79.5504766  55.4323596  16.3717420
  77.7415695  53.3100910  16.0478737  77.1465627  53.5905923  15.3525225
  77.4565392  53.7994811  16.8195478  82.1989393  59.4451447  14.9761635
  82.1665714  58.5067448  15.1621319  82.8090017  59.5235484  14.2427460
  82.3483882  56.2362490  15.0219918  81.8322931  55.4520947  14.8349847
  83.2323830  55.9081207  15.1866438  80.0094609  49.9803506  10.9815731
  79.8119430  49.6718594  11.8659063  80.6194314  50.7065145  11.1113661
  88.0165943  60.5067454  14.1167672  88.7469332  60.2452742  14.6775375
  87.4072889  59.7696176  14.1569740  86.0981240  58.6475316  14.7142123
  85.3714404  58.5131281  14.1058615  85.6828527  58.9552145  15.5198841
  73.9211417  62.3665246  22.4789496  74.8414426  62.5443845  22.6729543
  73.8861000  61.4221291  22.3269196  72.2215641  56.2397476   0.9543725
  71.3147097  55.9430589   1.0306438  72.4991622  55.9427294   0.0878011
  63.1393582  57.5603840  11.4042771  62.8196366  56.7069148  11.1117145
  62.5927010  57.7752418  12.1600738  66.9173489  60.2766281  15.1212277
  67.1359499  61.2083389  15.1400311  67.3299263  59.9174255  15.9067081
  73.8377707  50.7834366   7.1087966  73.0278436  50.4381451   7.4843212
  74.5262124  50.4741910   7.6975577  75.7668256  49.8612413   8.7312262
  76.3199294  50.2807866   9.3902286  76.0038342  48.9348161   8.7735218
  71.7901355  55.8499486  24.5115026  71.6898082  56.7993843  24.4427117
  71.5722897  55.5217725  23.6391096  70.9914426  53.0984412   1.0955704
  71.8533590  53.4239310   1.3551521  71.1764770  52.3115907   0.5828769
  63.0081842  61.1806751  13.3735892  62.3145313  60.7660704  12.8605847
  63.7554833  61.2227288  12.7769311  79.1447063  51.9712938   8.2390927
  78.5645732  52.6297742   7.8568979  78.8782995  51.1490283   7.8278344
  77.5950629  51.3717996  10.4412247  78.0950407  51.4834530   9.6326566
  78.2386237  51.0679049  11.0813055  71.6532625  59.2796625  23.3280088
  71.1699706  60.0796985  23.5343977  71.7393564  59.2904570  22.3747532
  64.9218584  61.1125005  11.2501907  64.8989273  61.2112692  10.2983790
  65.2319221  61.9590156  11.5719073  67.5805962  63.1701160  15.3648522
  68.5349216  63.1385102  15.2978453  67.3818486  62.7091784  16.1798748
  68.1705344  61.7402276  17.9319319  68.9898233  62.2346355  17.9554157
  68.4442152  60.8234244  17.9036887  77.9271941  54.1313028   7.2947275
  77.0397796  54.4162679   7.0767470  78.3425930  53.9706792   6.4474552
  81.2786477  54.1559549  11.0101614  82.0546867  54.6456002  11.2826231
  80.5534611  54.5817604  11.4673484  83.7159035  54.8687169  12.0675555
  84.3103526  54.6282905  11.3568863  83.7885619  54.1494299  12.6949091
  65.9356191  68.7120780  12.3818720  65.8010659  67.9521180  11.8156718
  65.5188253  69.4361679  11.9147509  77.9012964  59.6467564   7.5097565
  77.8448166  60.1036116   6.6705198  78.4541307  58.8858249   7.3320408
  81.7117770  55.4357296   8.3347685  81.4554705  55.0353932   9.1655892
  81.0870638  56.1501090   8.2097824  86.0230108  58.1753369  10.8418976
  85.4629666  58.2446559  11.6150538  85.4173611  57.9994354  10.1218472
  69.0925317  69.6090097  12.5937162  68.9757701  70.5535529  12.4915853
  68.2717763  69.3063658  12.9822962  63.4240259  56.0740410  18.6311517
  64.0699122  55.5639364  19.1198742  63.2157410  56.8109092  19.2054942
  75.9493651  63.1421257  24.1303657  76.8184810  63.3161910  23.7690292
  75.4700402  63.9615674  24.0079386  71.9443869  50.3380455   4.3835413
  71.9322539  51.2822294   4.5403684  72.8367291  50.1550600   4.0894874
  70.1179831  70.2618358  15.8093091  71.0207078  70.2941969  16.1259586
  69.8917201  69.3318809  15.8239427  71.8733433  69.0149345  12.4703169
  70.9229064  69.0151207  12.3567542  72.1765919  68.2682080  11.9539204
  75.7595989  46.9323231   8.6381349  74.9928384  46.3781718   8.7838032
  76.1706694  47.0045100   9.4995501  67.7637750  53.2208027  22.7286531
  68.6269211  52.8644832  22.9389855  67.1903160  52.8821922  23.4161935
  84.8995616  75.9572163  19.4296662  84.8884257  75.5624961  18.5577166
  85.0616255  75.2238236  20.0230433  81.6202877  78.7409275  18.3775846
  81.3292743  79.6454906  18.2622512  82.2559861  78.7825803  19.0919916
  90.0861243  66.2258145  15.9729727  89.7544567  67.0953555  15.7490942
  89.4906856  65.9094429  16.6523757  84.0530772  72.3642876  20.9957974
  83.2764106  72.9236796  20.9860839  84.6921335  72.8499659  21.5172844
  82.3077144  75.1728330  20.5575941  83.0491828  75.7113374  20.2810765
  81.6014129  75.7994618  20.7147493  87.7832484  77.3157470  19.1548103
  88.1915840  76.8739881  18.4102735  87.0609745  76.7410098  19.4082296
  84.1363554  72.2530077  16.5281660  84.9824749  72.6769490  16.6716309
  84.0762191  71.5963701  17.2220223  87.2862999  69.9134445  18.1862833
  87.0423931  70.6676506  17.6497109  87.5622929  70.2919793  19.0210080
  81.0438508  72.3267978  21.3591251  80.4137168  73.0084259  21.5926648
  80.9374596  72.2151059  20.4144389  76.3383480  71.9939774  12.2857175
  75.5482534  72.2497302  11.8097286  76.8294727  72.8088112  12.3909216
  74.6221183  72.2470264  14.7172166  74.8729222  73.1317274  14.9829742
  75.1580732  72.0674866  13.9447258  80.3219250  66.6288744  23.7216502
  79.9286196  66.0754942  24.3964147  81.1385391  66.9399322  24.1123020
  83.2387211  68.0446623  21.3136759  83.9796925  68.6453776  21.2341221
  83.4705134  67.3024261  20.7554801  78.3828549  73.2302990  19.5914989
  78.2682065  72.3288247  19.8922087  77.5273067  73.4766687  19.2399805
  85.4620387  81.1720730  21.1902489  85.0184241  80.3857109  20.8723394
  86.1237601  81.3599881  20.5246380  84.0174679  78.9667660  20.0607399
  84.5503016  78.2055948  19.8306707  83.4888760  78.6741312  20.8031553
  87.1844374  64.0727726  15.5901041  86.8408644  64.9629367  15.5140151
  87.5523337  63.8829383  14.7270626  86.2640915  66.4432381  13.5550274
  85.7605710  66.4062516  12.7418079  86.5571522  67.3525124  13.6146930
  82.5083801  66.5271111  12.5616456  83.3736797  66.3313919  12.2022345
  82.5761310  66.2981462  13.4885812  86.7919691  72.7093962  17.7900242
  87.1469079  72.9365435  18.6494708  87.4391823  73.0412339  17.1677497
  80.6859554  69.8170493  14.5746583  81.3258934  69.6759252  13.8769546
  79.8537085  69.5305007  14.1985185  79.1613096  71.2008575  16.5218394
  79.8336150  70.9925938  15.8731043  78.3342883  71.0030661  16.0823627
  85.0638668  67.8270516  18.5384055  84.4166583  68.5260466  18.4448532
  85.8339684  68.2606660  18.9060303  88.4717466  78.0919368  21.6134609
  88.3202973  77.8629920  20.6964692  88.4622146  79.0489970  21.6265954
  79.5640593  74.4751178  17.2820832  79.4260391  73.7431417  17.8832371
  80.4745517  74.3860078  17.0005019  82.1922894  74.1871138  16.7704511
  82.9022513  73.5464330  16.7291130  82.1492202  74.4384033  17.6930692
  80.9051828  71.1736356  18.5900151  80.3689185  70.7227094  19.2421747
  80.3168537  71.3082264  17.8470615  71.8356227  75.4202167  11.2468122
  72.5227267  75.1063897  10.6589137  71.6804356  76.3243531  10.9735373
  76.6390949  70.3092363  15.6753145  76.5549138  69.7018033  14.9403555
  75.8173656  70.8001382  15.6762642  89.2533658  65.7615520  13.1902699
  88.3396738  65.9919747  13.3584906  89.6826759  65.8453964  14.0416731
  85.0727689  74.6925223  22.1768630  84.3968327  74.5919353  22.8471005
  85.8955323  74.5364437  22.6404627  71.4124203  73.5002760  13.5185589
  71.4508303  72.9666351  14.3122707  70.9064496  72.9737966  12.8996566
  78.7914966  68.3467301  17.0148131  78.8556292  69.2082131  16.6025529
  78.7282086  67.7341302  16.2820489  78.2667238  70.4190433  20.6621165
  78.8939277  70.0367510  21.2758690  77.4095157  70.2004635  21.0276858
  88.6661347  80.8253408  22.2674901  89.2101251  81.4383367  21.7729855
  88.0848192  81.3832987  22.7841914  78.5727028  70.3022859  12.5767069
  77.8513614  70.9158826  12.4374542  79.3620284  70.8380624  12.4983715
  81.3753341  67.6377285  18.8507720  81.8987743  67.8839582  19.6134030
  81.1565675  68.4697320  18.4310858  82.5805886  68.5790980  16.5357391
  82.2402707  67.7798793  16.9378071  81.8744893  68.8792691  15.9634224
  83.2322358  65.6640293  14.9884714  84.0548428  65.1900771  14.8663604
  83.4760422  66.4430777  15.4883400  82.6157320  69.3461961  12.8457582
  82.6018889  68.4503055  12.5089880  83.3329748  69.3532625  13.4795868
  84.4683451  69.7799302  14.8910710  84.2101228  70.7016372  14.8895040
  83.9368491  69.3829736  15.5811174  75.2306599  74.8964758  15.7364354
  74.6860067  75.6724566  15.8684628  76.1085949  75.2435562  15.5783475
  84.8885406  65.9131252  11.2511872  84.9107103  65.9770585  10.2963852
  85.3053465  65.0735761  11.4452378  76.0172621  74.0234654  18.6294511
  75.2754357  74.1717289  19.2159141  75.6965365  74.2842920  17.7661260
  81.5035295  69.7408339  22.3235085  81.5523451  70.6170462  21.9412854
  82.0457810  69.1985732  21.7506728  89.3991779  73.1172857  20.2328257
  90.3001641  72.9779322  19.9412255  89.4739753  73.2827312  21.1726435
  83.7334584  70.4939711  19.0781443  82.8637893  70.7873278  18.8064032
  83.9694064  71.0780156  19.7988707  86.4373618  66.7119328  16.5946864
  86.9555562  67.4480355  16.2693352  86.0828750  67.0183322  17.4293623
  86.6886212  63.1319611  12.1147760  86.9687966  62.4642800  12.7408187
  87.4736819  63.3248707  11.6022424  88.5809450  68.6392828  16.0478737
  87.9859382  68.9197841  15.3525225  88.2959146  69.1286729  16.8195478
  84.7605171  77.6957164  22.4789496  85.6808181  77.8735763  22.6729543
  84.7254754  76.7513209  22.3269196  73.9787336  72.8895757  11.4042771
  73.6590121  72.0361066  11.1117145  73.4320765  73.1044336  12.1600738
  77.7567244  75.6058198  15.1212277  77.9753254  76.5375306  15.1400311
  78.1693018  75.2466173  15.9067081  82.6295109  71.1791404  24.5115026
  82.5291836  72.1285761  24.4427117  82.4116651  70.8509643  23.6391096
  73.8475596  76.5098669  13.3735892  73.1539068  76.0952622  12.8605847
  74.5948587  76.5519205  12.7769311  82.4926379  74.6088543  23.3280088
  82.0093461  75.4088903  23.5343977  82.5787318  74.6196488  22.3747532
  78.4199717  78.4993078  15.3648522  79.3742970  78.4677020  15.2978453
  78.2212240  78.0383701  16.1798748  79.0099099  77.0694194  17.9319319
  79.8291988  77.5638272  17.9554157  79.2835907  76.1526162  17.9036887
  74.2634013  71.4032328  18.6311517  74.9092877  70.8931282  19.1198742
  74.0551164  72.1401009  19.2054942  86.7887405  78.4713175  24.1303657
  87.6578565  78.6453827  23.7690292  86.3094157  79.2907592  24.0079386
  78.6031504  68.5499945  22.7286531  79.4662966  68.1936750  22.9389855
  78.0296915  68.2113840  23.4161935  91.1613005  81.9580661  23.7216502
  90.7679950  81.4046860  24.3964147  91.9779145  82.2691240  24.1123020
  89.4425259  83.8791862  22.7286531  90.3056720  83.5228667  22.9389855
  88.8690669  83.5405757  23.4161935  63.2208108  22.3050450   6.1541969
  63.2096749  21.9103249   5.2822472  63.3828748  21.5716523   6.7475740
  59.9415369  25.0887562   5.1021153  59.6505235  25.9933193   4.9867819
  60.5772354  25.1304090   5.8165222  64.9005254  24.7748978   2.0970946
  64.6005977  25.6774017   1.9886753  64.5556314  24.5081161   2.9492099
  62.3743264  18.7121164   7.7203281  61.5976598  19.2715084   7.7106146
  63.0133827  19.1977947   8.2418151  60.6289636  21.5206617   7.2821248
  61.3704321  22.0591661   7.0056071  59.9226622  22.1472906   7.4392800
  66.1044976  23.6635757   5.8793409  66.5128332  23.2218168   5.1348042
  65.3822237  23.0888385   6.1327602  65.6075491  16.2612732   4.9108140
  65.3636423  17.0154793   4.3742416  65.8835422  16.6398080   5.7455387
  67.5613954  22.8051345   3.5885406  67.7730849  23.4483105   2.9119787
  67.5143702  21.9713661   3.1207336  59.3651000  18.6746265   8.0836558
  58.7349661  19.3562546   8.3171955  59.2587088  18.5629347   7.1389696
  68.6759782  25.6823300   1.7607763  69.4977226  25.2803488   1.4790444
  68.6722185  25.5791534   2.7123879  62.4416385  25.2307344   3.9168473
  62.5060818  25.6927751   4.7526645  61.7327309  24.6004708   4.0450783
  58.6431743  12.9767031  10.4461809  58.2498688  12.4233229  11.1209453
  59.4597883  13.2877609  10.8368326  61.5599704  14.3924910   8.0382065
  62.3009417  14.9932063   7.9586528  61.7917627  13.6502548   7.4800108
  56.7041042  19.5781277   6.3160295  56.5894557  18.6766534   6.6167394
  55.8485559  19.8244974   5.9645112  63.7832879  27.5199018   7.9147796
  63.3396734  26.7335396   7.5968700  64.4450093  27.7078168   7.2491687
  58.5420001  29.0494819   2.4408474  59.0927426  28.9211883   1.6685468
  57.7031477  29.3489708   2.0903367  65.8814118  27.8001817   5.9429197
  65.8632593  28.6210699   5.4509466  66.8034038  27.6755893   6.1679338
  62.3387172  25.3145947   6.7852705  62.8715508  24.5534235   6.5552013
  61.8101253  25.0219599   7.5276860  68.6832730  22.6380960  -0.5861436
  68.0256405  23.3280221  -0.4981308  69.4873130  23.0277392  -0.2427450
  65.1132184  19.0572249   4.5145549  65.4681571  19.2843723   5.3740014
  65.7604315  19.3890626   3.8922804  64.6027195  27.8469306   1.7639250
  64.6564217  28.4160243   2.5316966  63.7341976  28.0171191   1.3993287
  71.7314850  24.2890913   2.7639035  71.9250740  25.1936723   3.0098310
  71.6315468  23.8298332   3.5977620  66.7929958  24.4397656   8.3379915
  66.6415465  24.2108207   7.4209999  66.7834638  25.3968257   8.3511260
  63.5615295  22.0129568   3.3226182  64.4907355  22.1640728   3.1495149
  63.1406325  22.1013589   2.4674828  62.3603627  26.0380233   1.0924719
  62.2214712  25.6699017   1.9650657  61.5718223  26.5527872   0.9208677
  68.5022165  27.4716778   6.4156397  68.4434711  26.7875998   5.7486980
  68.9041683  28.2135768   5.9637023  57.5212864  34.2878692  -0.7909884
  57.7609462  34.9197216  -0.1130865  56.6782060  33.9366732  -0.5044525
  68.5039572  25.4356362   4.6470377  67.6166351  25.0982284   4.7696776
  69.0738123  24.7039393   4.8839142  62.0340726  30.0957815   1.6131620
  61.9610897  30.9012786   2.1250925  61.5918119  30.2949780   0.7879641
  64.4939409  29.9944649   3.7689779  65.2067381  30.6292113   3.6965680
  64.0029438  30.0908515   2.9529780  59.5451323  27.7439092   4.5895349
  60.2460782  28.3775575   4.7424744  59.0746438  28.0853824   3.8290989
  67.3452609  20.2983699   2.4147900  66.6924059  20.5459607   1.7600353
  67.7232989  19.4847838   2.0810377  64.3059783  30.3343393  -3.4823930
  64.4882177  29.5165049  -3.0196178  65.1292769  30.5511085  -3.9199040
  63.3940182  21.0403511   8.9013937  62.7180819  20.9397640   9.5716312
  64.2167816  20.8842724   9.3649934  62.1362965  32.3470438   3.1371553
  62.6881273  32.5102059   3.9020638  62.4769158  32.9374876   2.4651578
  66.9873839  27.1731696   8.9920207  67.5313743  27.7861654   8.4975162
  66.4060684  27.7311274   9.5087220  65.2731352  30.2952414   0.1235235
  65.1482491  29.4942153  -0.3853819  65.9310443  30.7898607  -0.3650795
  67.3366260  28.0961434   1.7514785  66.3896596  27.9766785   1.6793112
  67.6849033  27.2083932   1.8341047  67.9446815  28.7142709  -0.9615990
  68.8693363  28.5085570  -1.0991539  67.7762119  28.4659110  -0.0526648
  62.2828776  29.9128920   5.1520207  62.5915902  29.6678066   6.0242907
  63.0804258  30.1175558   4.6639077  62.3049388  32.0666829  -2.6174416
  61.8654378  31.5743208  -1.9241560  63.0557505  31.5239797  -2.8582341
  59.8247788  16.0886626   9.0480391  59.8735943  16.9648749   8.6658161
  60.3670302  15.5464019   8.4752035  70.3102633  26.6327750   8.3281529
  69.5198177  26.6151888   7.7886028  70.0735988  27.1716043   9.0830565
  70.4300508  23.4820216   5.6414257  70.4798513  23.3170223   6.5829780
  70.3214432  22.6147475   5.2512138  67.7204271  19.4651144   6.9573564
  68.6214134  19.3257609   6.6657562  67.7952245  19.6305599   7.8971741
  62.0547076  16.8417999   5.8026750  61.1850386  17.1351565   5.5309339
  62.2906556  17.4258444   6.5234014  71.9318705  25.9017157   5.8856279
  71.6403514  26.2647138   6.7219740  71.3190836  25.1884166   5.7069611
  70.1805893  21.0249772   4.3536337  70.6560015  21.2177418   3.5455188
  69.2571459  21.0808958   4.1079720  68.8807562  17.9015532   2.5864642
  69.8324985  18.0013630   2.6076866  68.7111013  17.1093801   3.0962727
  63.0817664  24.0435451   9.2034803  64.0020673  24.2214050   9.3974849
  63.0467247  23.0991496   9.0514502  60.9507602  17.5269691  11.2360333
  60.8504328  18.4764048  11.1672424  60.7329144  17.1987930  10.3636403
  60.8138872  20.9566830  10.0525395  60.3305953  21.7567190  10.2589284
  60.8999811  20.9674775   9.0992839  57.3311591  23.4172481   4.6564626
  58.1504480  23.9116560   4.6799463  57.6048399  22.5004449   4.6282194
  58.2531564  31.2860301  -0.6817531  58.1363948  32.2305734  -0.7838841
  57.4324010  30.9833863  -0.2931732  65.1099898  24.8191462  10.8548964
  65.9791057  24.9932115  10.4935599  64.6306649  25.6385879  10.7324693
  59.2786078  31.9388563   2.5338397  60.1813325  31.9712174   2.8504892
  59.0523448  31.0089014   2.5484733  61.0339680  30.6919550  -0.8051524
  60.0835311  30.6921411  -0.9187152  61.3372166  29.9452284  -1.3215489
  56.9243996  14.8978232   9.4531837  57.7875458  14.5415037   9.6635162
  56.3509407  14.5592127  10.1407242  76.7692373  36.5280088   0.2594238
  77.4070783  36.4086836  -0.4442422  76.6513216  37.4760932   0.3182191
  73.5782080  36.4807516   0.1955763  73.2400591  36.3648581  -0.6923702
  74.4471848  36.0798681   0.1756769  69.4368895  38.3342993  -3.8147346
  68.8733760  38.2432930  -4.5831058  69.3221290  37.5142897  -3.3344853
  74.0601863  37.6342368   6.1541969  74.0490503  37.2395166   5.2822472
  74.2222502  36.9008441   6.7475740  66.9833327  39.8294184  -0.9763126
  67.7754619  39.4885009  -1.3916826  67.2229977  39.9389159  -0.0560972
  68.9424081  39.0903098  -8.1045747  69.7154957  38.5432085  -8.2432871
  69.2949480  39.9547347  -7.8931285  70.7809124  40.4179480   5.1021153
  70.4898990  41.3225111   4.9867819  71.4166108  40.4596008   5.8165222
  71.7065331  37.7956328   1.6922512  72.3028903  37.5712351   0.9779475
  71.7640302  37.0541074   2.2947960  73.3418189  36.6134017  -4.5656233
  72.9776396  36.0864638  -3.8543311  74.1985305  36.2232486  -4.7389747
  75.7399009  40.1040895   2.0970946  75.4399732  41.0065934   1.9886753
  75.3950068  39.8373079   2.9492099  69.1911490  36.5554692  -1.8692349
  68.2661987  36.4230906  -1.6614658  69.4395904  37.3348912  -1.3722407
  66.5520301  36.1987966  -1.0348560  66.6812683  36.4522445  -0.1209149
  65.8717753  36.7915674  -1.3543905  70.7219789  46.8685216  -4.9358086
  70.6443818  47.8193041  -4.8569605  70.1181432  46.5231088  -4.2783160
  73.2137018  34.0413081   7.7203281  72.4370352  34.6007001   7.7106146
  73.8527581  34.5269864   8.2418151  71.4683391  36.8498535   7.2821248
  72.2098075  37.3883579   7.0056071  70.7620376  37.4764823   7.4392800
  76.9438730  38.9927675   5.8793409  77.3522086  38.5510086   5.1348042
  76.2215992  38.4180303   6.1327602  73.2969800  33.9300282   3.2526966
  74.1430996  34.3539695   3.3961615  73.2368438  33.2733906   3.9465529
  77.2667545  39.5528866  -0.3654302  76.6376407  39.7174580  -1.0678234
  76.8793207  39.9670475   0.4056662  76.4469246  31.5904650   4.9108140
  76.2030178  32.3446711   4.3742416  76.7229176  31.9689998   5.7455387
  78.4007709  38.1343263   3.5885406  78.6124604  38.7775022   2.9119787
  78.3537457  37.3005579   3.1207336  76.0033937  30.7461083   0.4921978
  75.1418416  31.0442337   0.7838715  76.0296372  30.9631482  -0.4396990
  72.8195507  39.2903274  -3.1004217  73.2833852  39.5690977  -3.8899594
  72.5552305  38.3886718  -3.2831126  69.7119588  38.8374755  -0.1624453
  70.2820945  39.2662024  -0.8006969  70.3027700  38.5557340   0.5359732
  71.7564393  35.4126426  -6.2914652  72.4588436  35.8647470  -5.8240725
  71.4245021  34.7710245  -5.6634758  70.2044754  34.0038183   8.0836558
  69.5743415  34.6854464   8.3171955  70.0980842  33.8921264   7.1389696
  65.4989727  33.6709979  -0.9897518  64.7088781  33.9267507  -1.4657407
  65.9900974  34.4858317  -0.8845477  79.5153536  41.0115218   1.7607763
  80.3370980  40.6095405   1.4790444  79.5115939  40.9083452   2.7123879
  67.4504472  34.0354558  -4.0314041  66.6535636  34.1473252  -3.5130546
  67.2230064  34.3741210  -4.8973151  73.2810140  40.5599261   3.9168473
  73.3454572  41.0219668   4.7526645  72.5721064  39.9296626   4.0450783
  63.7827430  33.9240469   1.4417473  64.0335468  34.8087479   1.7075049
  64.3186978  33.7445071   0.6692565  72.9958158  42.2267369  -6.2152546
  72.8603832  43.0718904  -5.7867698  73.5367970  42.4286646  -6.9786613
  69.4825497  28.3058949  10.4461809  69.0892443  27.7525147  11.1209453
  70.2991638  28.6169527  10.8368326  66.4487555  39.7442807  -5.6424621
  66.9612076  40.5386057  -5.4919057  67.1010268  39.0469097  -5.7091020
  68.2582440  42.8608563  -3.5601868  68.4349068  43.7826528  -3.7480884
  69.0539273  42.5466982  -3.1307488  72.3993458  29.7216828   8.0382065
  73.1403172  30.3223981   7.9586528  72.6311381  28.9794465   7.4800108
  67.5434796  34.9073195   6.3160295  67.4288311  34.0058452   6.6167394
  66.6879314  35.1536892   5.9645112  74.6226634  42.8490935   7.9147796
  74.1790488  42.0627314   7.5968700  75.2843848  43.0370086   7.2491687
  69.3813755  44.3786737   2.4408474  69.9321180  44.2503800   1.6685468
  68.5425231  44.6781626   2.0903367  76.7207872  43.1293735   5.9429197
  76.7026347  43.9502616   5.4509466  77.6427792  43.0047810   6.1679338
  73.1780926  40.6437865   6.7852705  73.7109263  39.8826153   6.5552013
  72.6495007  40.3511516   7.5276860  64.4136472  38.0731461  -4.8665051
  65.2511694  38.4828469  -5.0831343  64.5914739  37.1330903  -4.8964857
  71.6690047  28.2041315  -0.7138238  72.5343044  28.0084124  -1.0732348
  71.7367556  27.9751667   0.2131119  74.5433639  39.7723857  -5.7028483
  74.0155000  39.0376617  -6.0155245  74.0421142  40.5498533  -5.9488514
  79.5226485  37.9672878  -0.5861436  78.8650159  38.6572139  -0.4981308
  80.3266884  38.3569310  -0.2427450  69.2752366  30.4343523  -3.3421871
  69.8496118  30.2118705  -4.0748678  69.8623349  30.5032218  -2.5893270
  74.8112775  33.7966706  -0.2899154  73.8935336  34.0181653  -0.4477466
  75.2272918  33.8713016  -1.1487447  77.5426679  43.1399748  -3.4728534
  77.8349654  43.7004806  -4.1916168  78.0525300  43.4328309  -2.7175375
  64.4362643  35.4122176  -4.1954317  64.2387043  34.8191537  -4.9203251
  63.8809307  35.1074387  -3.4778378  72.4159367  35.3045283  -2.0759724
  72.4707976  34.3519119  -2.1517248  71.6050569  35.4604722  -1.5918426
  70.3551726  33.9222343  -4.3169345  69.5419592  34.2216513  -3.9104153
  70.8510721  33.5278031  -3.5994863  72.5060304  43.9180100  -2.3835081
  72.4636483  44.1440946  -3.3126549  73.4223003  43.6843474  -2.2349279
  75.9525938  34.3864167   4.5145549  76.3075326  34.6135640   5.3740014
  76.5998069  34.7182544   3.8922804  69.8465801  31.4940698   1.2991890
  70.4865181  31.3529457   0.6014853  69.0143332  31.2075212   0.9230492
  70.6226105  40.7943129  -2.5873118  71.4166704  40.2993449  -2.7890543
  69.9117797  40.2660992  -2.9505412  75.4420950  43.1761224   1.7639250
  75.4957972  43.7452160   2.5316966  74.5735731  43.3463109   1.3993287
  66.8494418  31.4641023  -3.9235123  67.1101235  32.3786356  -4.0325963
  67.6711590  30.9965466  -3.7738511  68.3219343  32.8778780   3.2463701
  68.9942396  32.6696142   2.5976350  67.4949129  32.6800866   2.8068933
  82.5708604  39.6182831   2.7639035  82.7644494  40.5228641   3.0098310
  82.4709222  39.1590250   3.5977620  74.2244915  29.5040721   5.2629362
  73.5772830  30.2030671   5.1693838  74.9945930  29.9376865   5.6305610
  77.6323713  39.7689573   8.3379915  77.4809219  39.5400125   7.4209999
  77.6228392  40.7260175   8.3511260  74.4009049  37.3421486   3.3226182
  75.3301109  37.4932646   3.1495149  73.9800079  37.4305507   2.4674828
  73.1997381  41.3672151   1.0924719  73.0608467  40.9990935   1.9650657
  72.4111977  41.8819790   0.9208677  74.7502596  40.7453753  -1.5186443
  74.4152429  40.7054523  -0.6228793  74.2506542  40.0798469  -1.9916033
  68.7246840  36.1521383   4.0066138  68.5866638  35.4201622   4.6077677
  69.6351764  36.0630283   3.7250326  71.3529141  35.8641343   3.4949818
  72.0628759  35.2234535   3.4536436  71.3098449  36.1154237   4.4175999
  79.3415920  42.8008696   6.4156397  79.2828466  42.1167916   5.7486980
  79.7435438  43.5427686   5.9637023  70.0658075  32.8506560   5.3145457
  69.5295432  32.3997299   5.9667054  69.4774783  32.9852469   4.5715922
  68.3606618  49.6170610  -0.7909884  68.6003217  50.2489134  -0.1130865
  67.5175815  49.2658650  -0.5044525  79.3433327  40.7648280   4.6470377
  78.4560106  40.4274202   4.7696776  79.9131878  40.0331311   4.8839142
  60.9962474  37.0972372  -2.0286572  61.6833514  36.7834102  -2.6165557
  60.8410603  38.0013736  -2.3019320  65.7997196  31.9862568   2.3998452
  65.7155385  31.3788238   1.6648862  64.9779902  32.4771586   2.4007948
  72.8734480  45.4249732   1.6131620  72.8004652  46.2304704   2.1250925
  72.4311873  45.6241698   0.7879641  72.6624260  44.6621502  -4.8765559
  71.8791782  45.2043182  -4.7827334  73.3617005  45.1795482  -4.4771317
  75.3333164  45.3236566   3.7689779  76.0461136  45.9584031   3.6965680
  74.8423192  45.4200432   2.9529780  72.5555879  32.6133515  -2.5059669
  72.1853666  32.0604555  -1.8178763  73.0514971  32.0091648  -3.0584668
  70.3845077  43.0731010   4.5895349  71.0854537  43.7067493   4.7424744
  69.9140192  43.4145741   3.8290989  78.1846363  35.6275617   2.4147900
  77.5317813  35.8751525   1.7600353  78.5626743  34.8139755   2.0810377
  75.1453537  45.6635310  -3.4823930  75.3275932  44.8456966  -3.0196178
  75.9686523  45.8803003  -3.9199040  74.2333936  36.3695428   8.9013937
  73.5574573  36.2689558   9.5716312  75.0561570  36.2134642   9.3649934
  65.9812795  42.6067365   1.5226452  66.5666232  41.8611053   1.6554356
  65.7837634  42.9171321   2.4063116  68.8351451  45.6418612  -3.4611106
  68.1661826  46.1264740  -3.9447065  68.6964320  45.8887833  -2.5467727
  60.5730450  35.1772965   0.2430895  60.6114550  34.6436556   1.0368013
  60.0670743  34.6508170  -0.3758128  72.9756719  47.6762356   3.1371553
  73.5275027  47.8393977   3.9020638  73.3162913  48.2666793   2.4651578
  67.9521212  30.0237505   3.7393438  68.0162539  30.8852336   3.3270835
  67.8888333  29.4111507   3.0065796  67.4273485  32.0960638   7.3866472
  68.0545524  31.7137715   8.0003996  66.5701404  31.8774840   7.7522164
  77.8267593  42.5023613   8.9920207  78.3707497  43.1153571   8.4975162
  77.2454438  43.0603192   9.5087220  76.1125106  45.6244331   0.1235235
  75.9876246  44.8234071  -0.3853819  76.7704198  46.1190525  -0.3650795
  67.7333275  31.9793064  -0.6987625  67.0119860  32.5929031  -0.8380151
  68.5226530  32.5150829  -0.7770979  78.1760015  43.4253351   1.7514785
  77.2290350  43.3058702   1.6793112  78.5242788  42.5375849   1.8341047
  70.5359588  29.3147490   5.5753027  71.0593990  29.5609787   6.3379336
  70.3171921  30.1467525   5.1556164  75.1806448  43.2206068  -2.0480863
  75.0331411  42.2922775  -1.8673293  76.0059942  43.2426158  -2.5323787
  78.7840570  44.0434626  -0.9615990  79.7087117  43.8377488  -1.0991539
  78.6155873  43.7951027  -0.0526648  71.7412133  30.2561185   3.2602698
  71.4008954  29.4568998   3.6623377  71.0351139  30.5562896   2.6879531
  72.3928605  27.3410498   1.7130021  73.2154674  26.8670976   1.5908911
  72.6366669  28.1200981   2.2128707  69.9167184  34.0329618  -0.4778001
  69.7711765  34.3469921   0.4146281  69.4392387  34.6514519  -1.0307102
  71.7763567  31.0232166  -0.4297111  71.7625135  30.1273260  -0.7664813
  72.4935995  31.0302830   0.2041175  73.6289697  31.4569507   1.6156016
  73.3707475  32.3786577   1.6140347  73.0974738  31.0599941   2.3056480
  64.3912846  36.5734963   2.4609660  63.8466314  37.3494771   2.5929935
  65.2692196  36.9205767   2.3028782  65.1778868  35.7004859   5.3539817
  64.4360604  35.8487494   5.9404448  64.8571612  35.9613125   4.4906567
  73.1222530  45.2420837   5.1520207  73.4309657  44.9969984   6.0242907
  73.9198012  45.4467476   4.6639077  73.1443143  47.3958747  -2.6174416
  72.7048133  46.9035126  -1.9241560  73.8951259  46.8531715  -2.8582341
  65.6235481  43.5870288  -2.6149788  66.4493501  43.2874060  -2.9951145
  65.2729533  42.8177910  -2.1659999  70.5917015  42.9396756  -0.5452115
  69.9697024  42.2767461  -0.8449887  71.2621882  42.9657888  -1.2278467
  63.8244087  41.5056614  -1.6560855  62.9875995  41.0778789  -1.8376853
  63.7967732  41.6989058  -0.7190063  70.6641542  31.4178544   9.0480391
  70.7129698  32.2940667   8.6658161  71.2064056  30.8755937   8.4752035
  81.1496388  41.9619667   8.3281529  80.3591932  41.9443806   7.7886028
  80.9129742  42.5007961   9.0830565  81.2694263  38.8112134   5.6414257
  81.3192268  38.6462141   6.5829780  81.1608186  37.9439393   5.2512138
  70.1530522  41.4900679  -7.0693654  70.3018642  42.1736144  -7.7226981
  70.9596965  41.4705769  -6.5544198  78.5598025  34.7943062   6.9573564
  79.4607888  34.6549527   6.6657562  78.6346000  34.9597516   7.8971741
  72.8940831  32.1709916   5.8026750  72.0244140  32.4643482   5.5309339
  73.1300311  32.7550361   6.5234014  82.7712460  41.2309075   5.8856279
  82.4797268  41.5939056   6.7219740  82.1584591  40.5176083   5.7069611
  81.0199648  36.3541690   4.3536337  81.4953770  36.5469336   3.5455188
  80.0965213  36.4100876   4.1079720  67.9083155  37.5165857  -6.0632585
  67.6629196  36.6128187  -5.8652375  68.0779069  37.5183007  -7.0053107
  75.5979864  28.3889533   3.3192171  76.1161808  29.1250560   2.9938659
  75.2434997  28.6953527   4.1538930  79.7201317  33.2307450   2.5864642
  80.6718740  33.3305548   2.6076866  79.5504767  32.4385718   3.0962727
  77.7415696  30.3163033   2.7724043  77.1465629  30.5968046   2.0770532
  77.4565393  30.8056934   3.5440784  73.9211418  39.3727369   9.2034803
  74.8414428  39.5505968   9.3974849  73.8861001  38.4283414   9.0514502
  63.1393583  34.5665962  -1.8711922  62.8196367  33.7131271  -2.1637548
  62.5927011  34.7814540  -1.1153955  66.9173491  37.2828403   1.8457584
  67.1359500  38.2145511   1.8645618  67.3299265  36.9236378   2.6312388
  71.7901356  32.8561609  11.2360333  71.6898083  33.8055966  11.1672424
  71.5722898  32.5279848  10.3636403  63.0081843  38.1868874   0.0981199
  62.3145315  37.7722827  -0.4148846  63.7554834  38.2289410  -0.4985382
  71.6532626  36.2858748  10.0525395  71.1699708  37.0859108  10.2589284
  71.7393565  36.2966693   9.0992839  64.9218586  38.1187128  -2.0252786
  64.8989274  38.2174815  -2.9770903  65.2319222  38.9652278  -1.7035620
  67.5805964  40.1763283   2.0893828  68.5349217  40.1447225   2.0223760
  67.3818487  39.7153906   2.9044054  68.1705346  38.7464399   4.6564626
  68.9898235  39.2408477   4.6799463  68.4442153  37.8296367   4.6282194
  65.9356192  45.7182902  -0.8935974  65.8010660  44.9583303  -1.4597976
  65.5188255  46.4423802  -1.3607185  69.0925318  46.6152219  -0.6817531
  68.9757702  47.5597652  -0.7838841  68.2717764  46.3125781  -0.2931732
  63.4240260  33.0802533   5.3556823  64.0699124  32.5701487   5.8444048
  63.2157411  33.8171214   5.9300248  75.9493652  40.1483380  10.8548964
  76.8184812  40.3224032  10.4935599  75.4700404  40.9677797  10.7324693
  70.1179832  47.2680481   2.5338397  71.0207079  47.3004091   2.8504892
  69.8917202  46.3380932   2.5484733  71.8733434  46.0211468  -0.8051524
  70.9229065  46.0213329  -0.9187152  72.1765920  45.2744202  -1.3215489
  67.7637751  30.2270150   9.4531837  68.6269212  29.8706954   9.6635162
  67.1903162  29.8884044  10.1407242  84.8995617  52.9634286   6.1541969
  84.8884258  52.5687084   5.2822472  85.0616257  52.2300358   6.7475740
  81.6202878  55.7471398   5.1021153  81.3292744  56.6517028   4.9867819
  82.2559863  55.7887925   5.8165222  84.0530773  49.3704999   7.7203281
  83.2764107  49.9298919   7.7106146  84.6921336  49.8561782   8.2418151
  82.3077145  52.1790452   7.2821248  83.0491830  52.7175496   7.0056071
  81.6014131  52.8056741   7.4392800  87.7832485  54.3219593   5.8793409
  88.1915841  53.8802003   5.1348042  87.0609746  53.7472220   6.1327602
  84.1363555  49.2592199   3.2526966  84.9824750  49.6831613   3.3961615
  84.0762193  48.6025824   3.9465529  87.2863000  46.9196568   4.9108140
  87.0423932  47.6738628   4.3742416  87.5622931  47.2981915   5.7455387
  81.0438509  49.3330100   8.0836558  80.4137170  50.0146381   8.3171955
  80.9374597  49.2213182   7.1389696  76.3383481  49.0001896  -0.9897518
  75.5482535  49.2559425  -1.4657407  76.8294729  49.8150234  -0.8845477
  74.6221184  49.2532387   1.4417473  74.8729223  50.1379397   1.7075049
  75.1580733  49.0736988   0.6692565  80.3219252  43.6350866  10.4461809
  79.9286197  43.0817065  11.1209453  81.1385392  43.9461445  10.8368326
  83.2387213  45.0508745   8.0382065  83.9796926  45.6515898   7.9586528
  83.4705135  44.3086383   7.4800108  78.3828551  50.2365113   6.3160295
  78.2682066  49.3350370   6.6167394  77.5273068  50.4828809   5.9645112
  85.4620388  58.1782853   7.9147796  85.0184243  57.3919231   7.5968700
  86.1237602  58.3662003   7.2491687  84.0174681  55.9729782   6.7852705
  84.5503017  55.2118071   6.5552013  83.4888762  55.6803434   7.5276860
  82.5083802  43.5333233  -0.7138238  83.3736799  43.3376042  -1.0732348
  82.5761311  43.3043585   0.2131119  86.7919693  49.7156085   4.5145549
  87.1469080  49.9427558   5.3740014  87.4391824  50.0474462   3.8922804
  80.6859556  46.8232616   1.2991890  81.3258935  46.6821375   0.6014853
  79.8537086  46.5367129   0.9230492  79.1613097  48.2070698   3.2463701
  79.8336151  47.9988060   2.5976350  78.3342884  48.0092784   2.8068933
  85.0638669  44.8332639   5.2629362  84.4166584  45.5322589   5.1693838
  85.8339685  45.2668783   5.6305610  88.4717467  55.0981491   8.3379915
  88.3202974  54.8692043   7.4209999  88.4622147  56.0552092   8.3511260
  79.5640595  51.4813301   4.0066138  79.4260393  50.7493540   4.6077677
  80.4745518  51.3922201   3.7250326  82.1922895  51.1933260   3.4949818
  82.9022514  50.5526452   3.4536436  82.1492204  51.4446155   4.4175999
  80.9051829  48.1798478   5.3145457  80.3689186  47.7289217   5.9667054
  80.3168538  48.3144387   4.5715922  71.8356228  52.4264289  -2.0286572
  72.5227268  52.1126019  -2.6165557  71.6804357  53.3305654  -2.3019320
  76.6390951  47.3154486   2.3998452  76.5549139  46.7080155   1.6648862
  75.8173657  47.8063504   2.4007948  85.0727691  51.6987346   8.9013937
  84.3968328  51.5981475   9.5716312  85.8955325  51.5426560   9.3649934
  71.4124205  50.5064883   0.2430895  71.4508304  49.9728473   1.0368013
  70.9064497  49.9800088  -0.3758128  78.7914967  45.3529423   3.7393438
  78.8556293  46.2144254   3.3270835  78.7282087  44.7403425   3.0065796
  78.2667239  47.4252556   7.3866472  78.8939278  47.0429633   8.0003996
  77.4095158  47.2066758   7.7522164  88.6661348  57.8315531   8.9920207
  89.2101252  58.4445489   8.4975162  88.0848193  58.3895109   9.5087220
  78.5727029  47.3084981  -0.6987625  77.8513615  47.9220949  -0.8380151
  79.3620285  47.8442746  -0.7770979  81.3753343  44.6439408   5.5753027
  81.8987744  44.8901704   6.3379336  81.1565676  45.4759443   5.1556164
  82.5805888  45.5853103   3.2602698  82.2402708  44.7860916   3.6623377
  81.8744894  45.8854814   2.6879531  83.2322360  42.6702415   1.7130021
  84.0548429  42.1962894   1.5908911  83.4760423  43.4492899   2.2128707
  82.6157321  46.3524084  -0.4297111  82.6018890  45.4565177  -0.7664813
  83.3329749  46.3594748   0.2041175  84.4683452  46.7861424   1.6156016
  84.2101230  47.7078495   1.6140347  83.9368492  46.3891859   2.3056480
  75.2306600  51.9026880   2.4609660  74.6860069  52.6786688   2.5929935
  76.1085950  52.2497685   2.3028782  76.0172622  51.0296777   5.3539817
  75.2754358  51.1779412   5.9404448  75.6965367  51.2905042   4.4906567
  81.5035297  46.7470462   9.0480391  81.5523452  47.6232584   8.6658161
  82.0457811  46.2047855   8.4752035  89.3991780  50.1234979   6.9573564
  90.3001643  49.9841444   6.6657562  89.4739754  50.2889434   7.8971741
  83.7334585  47.5001834   5.8026750  82.8637894  47.7935400   5.5309339
  83.9694065  48.0842279   6.5234014  86.4373619  43.7181451   3.3192171
  86.9555563  44.4542478   2.9938659  86.0828752  44.0245444   4.1538930
  88.5809451  45.6454951   2.7724043  87.9859383  45.9259963   2.0770532
  88.2959148  46.1348852   3.5440784  84.7605173  54.7019286   9.2034803
  85.6808182  54.8797885   9.3974849  84.7254756  53.7575332   9.0514502
  73.9787338  49.8957880  -1.8711922  73.6590122  49.0423188  -2.1637548
  73.4320766  50.1106458  -1.1153955  77.7567245  52.6120321   1.8457584
  77.9753255  53.5437429   1.8645618  78.1693019  52.2528295   2.6312388
  82.6295110  48.1853527  11.2360333  82.5291837  49.1347884  11.1672424
  82.4116653  47.8571766  10.3636403  73.8475598  53.5160791   0.0981199
  73.1539069  53.1014744  -0.4148846  74.5948589  53.5581328  -0.4985382
  82.4926381  51.6150666  10.0525395  82.0093462  52.4151026  10.2589284
  82.5787320  51.6258610   9.0992839  78.4199718  55.5055200   2.0893828
  79.3742972  55.4739143   2.0223760  78.2212242  55.0445824   2.9044054
  79.0099100  54.0756316   4.6564626  79.8291989  54.5700395   4.6799463
  79.2835908  53.1588284   4.6282194  74.2634014  48.4094450   5.3556823
  74.9092878  47.8993404   5.8444048  74.0551166  49.1463132   5.9300248
  86.7887407  55.4775298  10.8548964  87.6578566  55.6515950  10.4935599
  86.3094158  56.2969715  10.7324693  78.6031505  45.5562067   9.4531837
  79.4662967  45.1998872   9.6635162  78.0296916  45.2175962  10.1407242
  91.1613006  58.9642784  10.4461809  90.7679952  58.4108982  11.1209453
  91.9779146  59.2753362  10.8368326  89.4425260  60.8853985   9.4531837
  90.3056721  60.5290790   9.6635162  88.8690671  60.5467880  10.1407242
   1.3015902  75.8359375  67.2186442   2.0319291  75.5744663  67.7794146
   0.6922848  75.0988097  67.2588510   5.8485781  87.8428492  64.6153889
   6.5810953  87.2727708  64.8491718   5.0925137  87.4550092  65.0560394
   3.3711202  81.5550066  69.0748497   3.0394526  82.4245477  68.8509712
   2.7756815  81.2386350  69.7542528   3.2639865  86.2745152  66.1541847
   2.3556742  86.2060560  65.8600608   3.2127461  86.7517097  66.9823673
   5.1301511  84.4761590  67.9319721   4.4875892  84.7694123  67.2859516
   4.6256440  84.3614511  68.7372918   2.7841675  88.2224764  58.6205581
   3.6959531  88.4552150  58.4453278   2.2751322  88.8061808  58.0580659
  11.7303242  91.0075683  64.4866198  10.9766950  90.4383081  64.3310202
  11.8650783  90.9738347  65.4336833   2.1670372  85.8836954  63.1995779
   1.4293129  85.3714340  63.5306022   2.4197145  85.4437336  62.3879056
   2.2681999  78.6613206  63.7937549   2.5740876  77.8010570  63.5063464
   2.9934604  79.2530826  63.5936542   7.9494380  89.8278214  65.7860402
   7.9384256  90.7102929  65.4154335   7.0811759  89.4749764  65.5914939
   4.5666954  88.7226855  62.2530568   5.0327406  89.5554846  62.1790871
   5.0174455  88.2571836  62.9575827   2.5383617  81.0907442  66.2921469
   1.6246697  81.3211668  66.4603676   2.9676718  81.1745886  67.1435502
   8.5518990  90.9778433  62.3909865   8.9950136  90.2285758  61.9928988
   7.6745500  90.9688569  62.0083597   2.6841738  88.4464778  73.3347028
   3.5851600  88.3071243  73.0431025   2.7589712  88.6119233  74.2745205
   3.8445029  86.8829166  68.9638106   4.7962452  86.9827264  68.9850330
   3.6748480  86.0907435  69.4736190   1.8659409  83.9684749  69.1497507
   1.2709341  84.2489762  68.4543995   1.5809105  84.4578650  69.9214248
   6.3233107  90.1035286  68.0780406   6.2909427  89.1651287  68.2640089
   6.9333731  90.1819323  67.3446230   6.4727596  86.8946329  68.1238689
   5.9566644  86.1104786  67.9368618   7.3567544  86.5665046  68.2885208
   4.1338322  80.6387345  64.0834501   3.9363144  80.3302433  64.9677833
   4.7438028  81.3648984  64.2132431  12.1409657  91.1651293  67.2186442
  12.8713045  90.9036581  67.7794146  11.5316602  90.4280015  67.2588510
  10.2224954  89.3059155  67.8160894   9.4958118  89.1715120  67.2077385
   9.8072241  89.6135984  68.6217612   3.2690776  82.6296777  61.3409697
   2.6889445  83.2881581  60.9587749   3.0026709  81.8074122  60.9297115
   1.7194343  82.0301835  63.5431017   2.2194121  82.1418369  62.7345336
   2.3629950  81.7262887  64.1831826   2.0515654  84.7896867  60.3966045
   1.1641509  85.0746518  60.1786240   2.4669643  84.6290631  59.5493322
   5.4030190  84.8143388  64.1120385   6.1790580  85.3039841  64.3845001
   4.6778324  85.2401442  64.5692254   7.8402749  85.5271007  65.1694325
   8.4347240  85.2866743  64.4587633   7.9129333  84.8078138  65.7967861
   5.8361484  86.0941135  61.4366455   5.5798418  85.6937771  62.2674663
   5.2114352  86.8084929  61.3116594  10.1473822  88.8337208  63.9437746
   9.5873380  88.9030398  64.7169308   9.5417325  88.6578193  63.2237243
   1.3015904  52.8421498  53.9431749   2.0319292  52.5806786  54.5039452
   0.6922849  52.1050220  53.9833817   0.8936087  67.1863927  53.3613009
   1.5314497  67.0670675  52.6576349   0.7756930  68.1344771  53.4200961
   5.8485783  64.8490614  51.3399195   6.5810954  64.2789831  51.5737025
   5.0925138  64.4612215  51.7805701   3.3711203  58.5612188  55.7993804
   3.0394528  59.4307599  55.5755019   2.7756816  58.2448472  56.4787834
   3.2639866  63.2807275  52.8787154   2.3556744  63.2122683  52.5845915
   3.2127462  63.7579219  53.7068979   5.1301513  61.4823713  54.6565028
   4.4875893  61.7756246  54.0104822   4.6256441  61.3676633  55.4618225
   2.7841676  65.2286886  45.3450887   3.6959532  65.4614273  45.1698585
   2.2751323  65.8123930  44.7825966   1.3911259  70.2112705  52.7364469
   0.7620121  70.3758419  52.0340536   1.0036921  70.6254314  53.5075433
   5.2700490  71.1467142  50.0908832   4.5851529  71.5266044  49.5405866
   5.3544340  71.7562469  50.8240780   2.5251422  68.7927101  56.6904176
   2.7368317  69.4358861  56.0138557   2.4781170  67.9589418  56.2226106
   3.6397250  71.6699057  54.8626533   4.4614694  71.2679244  54.5809215
   3.6359653  71.5667291  55.8142649  11.7303243  68.0137805  51.2111505
  10.9766951  67.4445203  51.0555509  11.8650784  67.9800470  52.1582139
   0.8451586  73.7877574  59.0447967   0.8270061  74.6086455  58.5528237
   1.7671506  73.6631649  59.2698109   5.4078892  69.1522735  45.8590726
   4.6308334  68.8133895  45.4145888   6.0870372  69.1575358  45.1845691
   3.6470198  68.6256717  52.5157334   2.9893873  69.3155978  52.6037463
   4.4510598  69.0153148  52.8591320   2.4575657  66.9801089  50.5661276
   2.9707539  67.6131081  51.0682986   3.1076881  66.3802285  50.2004636
   3.2237453  71.9607091  48.6940418   2.7699781  71.1198001  48.7505609
   2.5931420  72.5968489  49.0315199   2.1670373  62.8899077  49.9241086
   1.4293130  62.3776463  50.2551329   2.4197147  62.4499458  49.1124363
   1.6670393  73.7983587  49.6290237   1.9593367  74.3588644  48.9102602
   2.1769013  74.0912148  50.3843396   2.2682000  55.6675329  50.5182855
   2.5740877  54.8072692  50.2308770   2.9934605  56.2592949  50.3181849
   5.8067389  68.1666442  48.3213648   5.6685287  68.3568038  47.3934837
   5.4503607  68.9285825  48.7781699   5.8336768  70.2342969  53.3324920
   6.2673275  70.1418258  54.1807974   6.5468349  70.2100469  52.6944936
   6.6952318  70.2766670  55.8657805   6.8888208  71.1812480  56.1117080
   6.5952936  69.8174089  56.6996390   1.7567426  70.4273412  61.4398686
   1.6052933  70.1983964  60.5228769   1.7472106  71.3844014  61.4530031
   1.8105501  68.7493626  41.8569387   1.1934672  68.0240455  41.7602440
   1.3421990  69.5102987  41.5136461   3.4659633  73.4592535  59.5175167
   3.4072179  72.7751755  58.8505750   3.8679151  74.2011525  59.0655793
   3.4677040  71.4232119  57.7489147   2.5803819  71.0858041  57.8715546
   4.0375591  70.6915150  57.9857913   7.9494381  66.8340336  52.5105709
   7.9384257  67.7165052  52.1399642   7.0811760  66.4811887  52.3160246
   4.5666956  65.7288977  48.9775875   5.0327408  66.5616969  48.9036177
   5.0174456  65.2633959  49.6821133   2.6343187  72.0732798  45.9762027
   2.9103031  71.9589393  46.8855901   1.7647685  71.6750283  45.9374200
   2.5383618  58.0969564  53.0166776   1.6246698  58.3273791  53.1848983
   2.9676720  58.1808008  53.8680808   2.3090077  66.2859456  55.5166670
   1.6561527  66.5335364  54.8619123   2.6870457  65.4723594  55.1829147
   1.9511307  73.1607452  62.0938978   2.4951211  73.7737410  61.5993932
   1.3698152  73.7187031  62.6105991   2.3003728  74.0837190  54.8533555
   1.3534064  73.9642541  54.7811882   2.6486501  73.1959688  54.9359817
   2.9084283  74.7018465  52.1402780   3.8330831  74.4961326  52.0027232
   2.7399587  74.4534866  53.0492122   2.6979600  75.2204133  47.4964872
   2.8716477  74.6550555  46.7438724   3.1908491  76.0205027  47.3144362
   8.5518991  67.9840556  49.1155172   8.9950137  67.2347881  48.7174295
   7.6745501  67.9750692  48.7328904   3.6854772  74.5370897  44.5961770
   4.3805677  75.1577590  44.8149085   4.0277922  73.6866248  44.8714148
   5.5846195  71.9870603  46.1249101   6.1097519  72.3257875  45.3998421
   5.4968548  71.0517618  45.9412236   5.2740101  72.6203506  61.4300299
   4.4835645  72.6027645  60.8904798   5.0373456  73.1591800  62.1849336
   5.3937976  69.4695973  58.7433027   5.4435981  69.3045980  59.6848550
   5.2851900  68.6023232  58.3530908   2.6841739  65.4526901  60.0592334
   3.5851602  65.3133365  59.7676332   2.7589713  65.6181355  60.9990512
   6.8956173  71.8892914  58.9875049   6.6040982  72.2522895  59.8238510
   6.2828305  71.1759922  58.8088381   8.0951856  69.4545794  51.5077619
   8.9298747  69.8935598  51.6715180   8.2310984  68.9784447  50.6885865
   5.1443361  67.0125529  57.4555107   5.6197483  67.2053175  56.6473958
   4.2208927  67.0684715  57.2098491   3.8445030  63.8891289  55.6883413
   4.7962453  63.9889386  55.7095637   3.6748481  63.0969557  56.1981497
   1.8659410  60.9746872  55.8742814   1.2709342  61.2551885  55.1789302
   1.5809107  61.4640773  56.6459555   0.9966900  74.9269799  44.6345446
   1.9297574  74.8615360  44.8378322   0.9090113  75.7626066  44.1759979
   3.6254917  74.2435669  41.5949394   3.5468549  73.9095533  42.4885152
   4.4464584  74.7357437  41.5940866   6.3233108  67.1097408  54.8025712
   6.2909428  66.1713409  54.9885396   6.9333732  67.1881445  54.0691537
   6.4727597  63.9008452  54.8483995   5.9566645  63.1166909  54.6613924
   7.3567545  63.5727169  55.0130515   4.1338324  57.6449467  50.8079808
   3.9363145  57.3364556  51.6923140   4.7438029  58.3711106  50.9377738
  12.1409658  68.1713415  53.9431749  12.8713047  67.9098703  54.5039452
  11.5316604  67.4342137  53.9833817  10.2224955  66.3121278  54.5406200
   9.4958119  66.1777243  53.9322692   9.8072242  66.6198107  55.3462918
   3.2690777  59.6358899  48.0655004   2.6889446  60.2943704  47.6833056
   3.0026710  58.8136244  47.6542421   1.7194344  59.0363957  50.2676324
   2.2194122  59.1480492  49.4590643   2.3629952  58.7325010  50.9077132
   2.0515655  61.7958990  47.1211352   1.1641510  62.0808641  46.9031547
   2.4669644  61.6352753  46.2738629   5.4030192  61.8205511  50.8365691
   6.1790582  62.3101963  51.1090308   4.6778326  62.2463565  51.2937561
   7.8402750  62.5333130  51.8939632   8.4347241  62.2928866  51.1832940
   7.9129334  61.8140261  52.5213168   2.0256679  67.3113526  47.3361642
   1.9691881  67.7682077  46.4969275   2.5785022  66.5504210  47.1584485
   5.8361485  63.1003258  48.1611762   5.5798419  62.6999893  48.9919969
   5.2114353  63.8147052  48.0361901  10.1473823  65.8399331  50.6683053
   9.5873381  65.9092520  51.4414615   9.5417326  65.6640316  49.9482549
   3.1045566  71.9986194  43.2657832   3.9391170  71.5667392  43.0835307
   2.9429909  71.8268207  44.1934726   2.7591458  68.5018307  44.6314171
   2.7040262  68.3362578  43.6902615   2.1337514  69.2094340  44.7876361
  11.7329841  82.5155845  53.3613009  12.3708251  82.3962592  52.6576349
  11.6150684  83.4636689  53.4200961   8.5419548  82.4683273  53.2974533
   8.2038059  82.3524338  52.4095068   9.4109316  82.0674438  53.2775540
   4.4006363  84.3218749  49.2871424   3.8371228  84.2308686  48.5187712
   4.2858758  83.5018654  49.7673917   9.0239331  83.6218125  59.2560739
   9.0127971  83.2270923  58.3841243   9.1859970  82.8884197  59.8494510
   1.9470795  85.8169941  52.1255645   2.7392087  85.4760766  51.7101944
   2.1867445  85.9264916  53.0457798   9.9805922  87.9889717  44.5985889
   9.3293902  88.5743797  44.2119903  10.7750285  88.5195912  44.6580927
   3.9061549  85.0778854  44.9973024   4.6792425  84.5307841  44.8585899
   4.2586948  85.9423104  45.2087485   5.7446592  86.4055237  58.2039923
   5.4536458  87.3100867  58.0886589   6.3803576  86.4471764  58.9183993
   6.6702799  83.7832085  54.7941283   7.2666371  83.5588107  54.0798246
   6.7277770  83.0416831  55.3966730   6.2427827  81.2371520  42.6291474
   6.4953348  80.7153042  41.8674937   5.3052386  81.0737666  42.7318157
  11.2871110  80.2407299  50.4366217  12.0734199  79.8226722  50.0856634
  11.5509814  81.1453391  50.6047865  11.4581187  85.6780149  45.1354874
  10.8227020  85.7514776  45.8475778  11.1278594  86.2673748  44.4573953
   5.9624116  83.1399626  44.8315849   5.8460374  82.4644530  45.4996933
   6.0726376  82.6532000  44.0148002   8.3055657  82.6009773  48.5362538
   7.9413864  82.0740394  49.2475459   9.1622773  82.2108242  48.3629023
  14.2104957  73.8904106  55.7993804  13.8788282  74.7599517  55.5755019
  13.6150571  73.5740390  56.4787834   7.9461144  77.6299673  43.5323886
   8.1135546  78.4979910  43.8994357   7.7558313  77.7926955  42.6085176
  10.7036477  86.0916652  55.1989717  10.4037200  86.9941691  55.0905524
  10.3587536  85.8248835  56.0510870   4.1548958  82.5430449  51.2326421
   3.2299455  82.4106663  51.4404113   4.4033372  83.3224668  51.7296363
  14.1033621  78.6099192  52.8787154  13.1950498  78.5414601  52.5845915
  14.0521216  79.0871137  53.7068979   7.9250365  80.0857331  44.5170553
   7.8049990  80.5314381  45.3556033   7.2302953  80.4342648  43.9584091
   1.5157769  82.1863722  52.0670210   1.6450151  82.4398201  52.9809622
   0.8355221  82.7791430  51.7474865   8.1774486  80.0288838  60.8222051
   7.4007821  80.5882758  60.8124916   8.8165049  80.5145621  61.3436921
  15.9695267  76.8115631  54.6565028  15.3269647  77.1048164  54.0104822
  15.4650196  76.6968551  55.4618225  13.6235431  80.5578804  45.3450887
  14.5353287  80.7906191  45.1698585  13.1145078  81.1415848  44.7825966
   6.4320859  82.8374291  60.3840018   7.1735543  83.3759335  60.1074842
   5.7257844  83.4640580  60.5411570  11.9076198  84.9803432  58.9812180
  12.3159554  84.5385842  58.2366812  11.1853460  84.4056059  59.2346373
   8.2607268  79.9176038  56.3545737   9.1068464  80.3415452  56.4980386
   8.2005906  79.2609663  57.0484300  12.2305013  85.5404622  52.7364469
  11.6013875  85.7050336  52.0340536  11.8430675  85.9546232  53.5075433
  16.1094245  86.4759060  50.0908832  15.4245283  86.8557961  49.5405866
  16.1938094  87.0854387  50.8240780  11.4106714  77.5780407  58.0126910
  11.1667646  78.3322467  57.4761186  11.6866644  77.9565754  58.8474157
  13.3645177  84.1219019  56.6904176  13.5762072  84.7650779  56.0138557
  13.3174925  83.2881336  56.2226106  10.9671405  76.7336840  53.5940748
  10.1055885  77.0318093  53.8857486  10.9933840  76.9507239  52.6621781
   7.7832975  85.2779030  50.0014554   8.2471320  85.5566733  49.2119176
   7.5189773  84.3762475  49.8187644   4.6757056  84.8250512  52.9394317
   5.2458413  85.2537780  52.3011801   5.2665168  84.5433097  53.6378503
   6.7201861  81.4002183  46.8104119   7.4225904  81.8523226  47.2778045
   6.3882489  80.7586002  47.4384012   5.1682222  79.9913939  61.1855328
   4.5380883  80.6730220  61.4190725   5.0618310  79.8797021  60.2408466
  14.4791004  86.9990975  54.8626533  15.3008448  86.5971162  54.5809215
  14.4753407  86.8959209  55.8142649   2.4141940  80.0230315  49.0704729
   1.6173104  80.1349009  49.5888225   2.1867533  80.3616967  48.2045620
   8.2447608  86.5475018  57.0187244   8.3092040  87.0095425  57.8545416
   7.5358532  85.9172383  57.1469554   7.9595626  88.2143125  46.8866224
   7.8241300  89.0594661  47.3151072   8.5005438  88.4162403  46.1232158
   4.4462965  74.2934705  63.5480579   4.0529911  73.7400904  64.2228224
   5.2629106  74.6045284  63.9387097   1.4125023  85.7318563  47.4594149
   1.9249544  86.5261814  47.6099714   2.0647736  85.0344854  47.3927751
   7.3630926  75.7092584  61.1400836   8.1040640  76.3099737  61.0605298
   7.5948849  74.9670222  60.5818878   2.5072264  80.8948952  59.4179066
   2.3925779  79.9934209  59.7186164   1.6516782  81.1412648  59.0663882
   9.5864102  88.8366692  61.0166566   9.1427956  88.0503070  60.6987471
  10.2481316  89.0245842  60.3510457  11.6845340  89.1169492  59.0447967
  11.6663815  89.9378373  58.5528237  12.6065260  88.9923567  59.2698109
   8.1418394  86.6313621  59.8871476   8.6746731  85.8701909  59.6570784
   7.6132475  86.3387273  60.6295630  11.3088089  71.7373687  55.4165118
  10.9652359  72.6275329  55.3404228  11.6767052  71.5475345  54.5534703
  11.2738372  81.7282298  43.9237553  10.7584995  82.4986903  44.1625940
  11.0015680  81.0547434  44.5470614   8.8585483  76.5731999  48.9822791
   8.0027079  76.1838849  48.8028430   9.2712435  76.6523960  48.1222577
  10.3884630  74.1078342  53.3814351   9.8849425  74.0708478  52.5682156
  10.6815236  75.0171085  53.4411007   6.6327515  74.1917072  52.3880533
   7.4980512  73.9959881  52.0286422   6.7005024  73.9627424  53.3149889
  11.0624675  79.6009390  45.7497334  10.7574811  79.9155540  46.6007477
  12.0155117  79.6790810  45.7924667   9.5071107  85.7599614  47.3990288
   8.9792468  85.0252373  47.0863525   9.0058610  86.5374290  47.1530256
  14.4863953  83.9548634  52.5157334  13.8287627  84.6447896  52.6037463
  15.2904352  84.3445066  52.8591320   4.2389835  76.4219280  49.7596899
   4.8133586  76.1994461  49.0270092   4.8260817  76.4907975  50.5125501
  13.2969412  82.3093007  50.5661276  13.8101293  82.9422999  51.0682986
  13.9470636  81.7094202  50.2004636   4.5659422  78.4523741  43.7792785
   3.7296734  78.7898428  44.1002059   4.4264191  78.3172721  42.8419922
   6.5412502  73.2960529  48.4871969   5.8876915  72.9809546  47.8628584
   6.4992976  72.6736269  49.2131792   7.6523707  83.5779824  40.4025261
   6.7450769  83.3469077  40.6016410   8.1494739  82.7817443  40.5899242
   9.7750243  79.7842462  52.8119616   8.8572804  80.0057409  52.6541304
  10.1910386  79.8588773  51.9531324  10.5585290  81.1833878  47.9422297
  11.3057109  81.6955275  47.6329419  10.8276880  80.8617931  48.8026690
   8.8311941  83.6792419  44.9249251   7.9223160  83.3951452  45.0221721
   8.8607024  84.0991497  44.0652558  14.0631208  87.2899008  48.6940418
  13.6093535  86.4489918  48.7505609  13.4325175  87.9260407  49.0315199
  13.0064127  78.2190994  49.9241086  12.2686884  77.7068381  50.2551329
  13.2590901  77.7791376  49.1124363  12.5064147  89.1275505  49.6290237
  12.7987122  89.6880562  48.9102602  13.0162768  89.4204066  50.3843396
   7.3796835  81.2921039  51.0259046   7.4345444  80.3394876  50.9501523
   6.5688037  81.4480479  51.5100345   8.5288028  85.2201163  42.2637330
   8.0907458  84.5037021  41.8042967   9.2698469  85.4477277  41.7022421
   5.3189194  79.9098099  48.7849425   4.5057060  80.2092270  49.1914617
   5.8148189  79.5153788  49.5023907   7.4697772  89.9055856  50.7183690
   7.4273951  90.1316702  49.7892222   8.3860471  89.6719231  50.8669491
  10.9163406  80.3739924  57.6164319  11.2712794  80.6011397  58.4758785
  11.5635537  80.7058300  56.9941574   4.8103269  77.4816455  54.4010660
   5.4502649  77.3405214  53.7033623   3.9780800  77.1950968  54.0249262
  16.6730523  85.5634887  53.3324920  17.1067029  85.4710176  54.1807974
  17.3862103  85.5392387  52.6944936   5.5863573  86.7818885  50.5145653
   6.3804172  86.2869205  50.3128228   4.8755266  86.2536748  50.1513358
  10.4058418  89.1636981  54.8658020  10.4595440  89.7327917  55.6335736
   9.5373199  89.3338866  54.5012057   1.8946337  80.9261967  46.5905405
   0.9643925  80.8646422  46.8075367   1.9903809  80.4037920  45.7942046
   1.8131886  77.4516780  49.1783647   2.0738703  78.3662113  49.0692807
   2.6349058  76.9841222  49.3280260   3.2856811  78.8654537  56.3482471
   3.9579864  78.6571899  55.6995120   2.4586598  78.6676623  55.9087704
  17.5346072  85.6058587  55.8657805  17.7281962  86.5104398  56.1117080
  17.4346690  85.1466006  56.6996390   9.1882383  75.4916478  58.3648132
   8.5410298  76.1906427  58.2712609   9.9583398  75.9252622  58.7324381
  12.5961181  85.7565330  61.4398686  12.4446687  85.5275882  60.5228769
  12.5865860  86.7135931  61.4530031   9.3646517  83.3297243  56.4244952
  10.2938577  83.4808402  56.2513919   8.9437547  83.4181264  55.5693599
   8.1634849  87.3547907  54.1943490   8.0245935  86.9866692  55.0669428
   7.3749445  87.8695547  54.0227447   9.7140064  86.7329510  51.5832327
   9.3789897  86.6930280  52.4789977   9.2144010  86.0674226  51.1102738
   3.6884308  82.1397140  57.1084909   3.5504106  81.4077379  57.7096448
   4.5989232  82.0506040  56.8269096   6.3166609  81.8517099  56.5968588
   7.0266227  81.2110291  56.5555207   6.2735917  82.1029994  57.5194769
  14.3053388  88.7884453  59.5175167  14.2465934  88.1043673  58.8505750
  14.7072906  89.5303443  59.0655793   5.0295543  78.8382317  58.4164228
   4.4932900  78.3873056  59.0685824   4.4412251  78.9728226  57.6734692
   4.4397802  78.2970968  40.9790691   3.5627268  78.1759769  40.6152938
   4.9155555  77.5057047  40.7269580  14.3070795  86.7524036  57.7489147
  13.4197574  86.4149958  57.8715546  14.8769346  86.0207068  57.9857913
  10.9358378  76.4591888  50.8687417  11.4327078  75.7061851  50.5488487
  10.1645359  76.4956205  50.3030627  10.2970632  91.3112323  56.8708549
  11.0098604  91.9459788  56.7984450   9.8060660  91.4076189  56.0548551
  12.0188159  85.2163576  48.4425841  11.0844437  85.3365038  48.2730545
  12.1964827  84.3136042  48.1785850   7.5193347  78.6009271  50.5959102
   7.1491134  78.0480312  51.2840007   8.0152439  77.9967405  50.0434102
  15.4060710  81.0580895  48.9775875  15.8721162  81.8908886  48.9036177
  15.8568211  80.5925876  49.6821133   5.3482545  89.0606766  57.6914120
   6.0492005  89.6943249  57.8443514   4.8777660  89.4021498  56.9309759
  13.4736941  87.4024716  45.9762027  13.7496785  87.2881311  46.8855901
  12.6041440  87.0042201  45.9374200  13.1483831  81.6151374  55.5166670
  12.4955282  81.8627281  54.8619123  13.5264211  80.8015512  55.1829147
  10.1091005  91.6511067  49.6194840  10.2913400  90.8332723  50.0822593
  10.9323991  91.8678759  49.1819730  10.4433171  90.5779252  46.8809889
  10.9720937  90.0671707  46.2680051  10.7061390  90.2621782  47.7455422
   9.1971404  82.3571185  62.0032707   8.5212041  82.2565314  62.6735082
  10.0199038  82.2010399  62.4668704   2.9158680  76.0113262  56.8412208
   2.9800007  76.8728093  56.4289606   2.8525801  75.3987264  56.1084566
   2.3910953  78.0836395  60.4885242   3.0182992  77.7013472  61.1022767
   1.5338872  77.8650597  60.8540935  12.7905061  88.4899370  62.0938978
  13.3344965  89.1029328  61.5993932  12.2091906  89.0478948  62.6105991
  11.0762574  91.6120088  53.2254005  10.9513714  90.8109828  52.7164951
  11.7341666  92.1066281  52.7367975   2.6970743  77.9668820  52.4031146
   1.9757328  78.5804788  52.2638619   3.4863998  78.5026585  52.3247792
  13.1397483  89.4129108  54.8533555  12.1927818  89.2934459  54.7811882
  13.4880256  88.5251606  54.9359817   5.4997056  75.3023247  58.6771797
   6.0231458  75.5485543  59.4398107   5.2809389  76.1343282  58.2574935
   0.8964337  77.5726921  46.5442922   0.5677043  76.6924300  46.3618028
   1.2503708  77.5174590  47.4319311  10.1443916  89.2081824  51.0537908
   9.9968879  88.2798532  51.2345478  10.9697410  89.2301915  50.5694983
   4.0106160  77.8599891  46.9118400   4.3502233  78.3885812  46.1897008
   4.4578281  78.1980297  47.6876966  13.7478038  90.0310383  52.1402780
  14.6724585  89.8253244  52.0027232  13.5793341  89.7826784  53.0492122
   6.7049601  76.2436942  56.3621468   6.3646422  75.4444755  56.7642148
   5.9988608  76.5438653  55.7898301   7.3566073  73.3286254  54.8148791
   8.1792142  72.8546733  54.6927681   7.6004137  74.1076738  55.3147477
   5.9974308  76.3574513  45.1111693   6.7182670  76.7355766  44.6075409
   5.3739612  77.0763390  45.2146671  10.1405430  77.0619662  46.0470025
  10.3569045  77.9444300  45.7458853   9.6599498  76.6705875  45.3175667
   4.8804652  80.0205375  52.6240770   4.7349233  80.3345678  53.5165051
   4.4029855  80.6390275  52.0711668   6.7401035  77.0107923  52.6721659
   6.7262603  76.1149016  52.3353957   7.4573463  77.0178587  53.3059945
   8.5927165  77.4445263  54.7174787   8.3344943  78.3662334  54.7159117
   8.0612206  77.0475698  55.4075251  13.5373354  90.5496050  47.4964872
  13.7110232  89.9842473  46.7438724  14.0302245  91.3496945  47.3144362
   6.1437931  75.8922303  47.9409229   6.2653842  74.9638949  48.1400117
   5.8539973  75.9060989  47.0287545   9.0129121  73.5777214  51.0775949
   9.0350818  73.6416547  50.1227929   9.4297180  72.7381722  51.2716455
  14.5248527  89.8662815  44.5961770  15.2199431  90.4869507  44.8149085
  14.8671677  89.0158166  44.8714148   5.5554483  88.9272513  52.5566656
   4.9334492  88.2643218  52.2568884   6.2259350  88.9533644  51.8740304
   5.6279010  77.4054301  62.1499162   5.6767166  78.2816423  61.7676931
   6.1701524  76.8631694  61.5770805  16.1133856  87.9495424  61.4300299
  15.3229400  87.9319563  60.8904798  15.8767210  88.4883718  62.1849336
  16.2331731  84.7987890  58.7433027  16.2829736  84.6337898  59.6848550
  16.1245654  83.9315149  58.3530908   5.1167990  87.4776436  46.0325116
   5.2656110  88.1611900  45.3791789   5.9234433  87.4581526  46.5474572
  13.5235493  80.7818818  60.0592334  14.4245356  80.6425283  59.7676332
  13.5983468  80.9473273  60.9990512   7.8578299  78.1585673  58.9045520
   6.9881608  78.4519239  58.6328109   8.0937779  78.7426118  59.6252784
  17.7349928  87.2184832  58.9875049  17.4434736  87.5814812  59.8238510
  17.1222059  86.5051840  58.8088381  18.9345610  84.7837712  51.5077619
  19.7692501  85.2227516  51.6715180  19.0704739  84.3076365  50.6885865
  15.9837116  82.3417446  57.4555107  16.4591238  82.5345093  56.6473958
  15.0602681  82.3976632  57.2098491   2.8720623  83.5041614  47.0386185
   2.6266665  82.6003944  47.2366395   3.0416537  83.5058764  46.0965663
  10.5617332  74.3765290  56.4210941  11.0799276  75.1126317  56.0957429
  10.2072465  74.6829283  57.2557700   2.1416270  79.2369971  44.5372347
   1.4485515  79.3114326  43.8812383   1.8968022  78.4730315  45.0593864
   8.6163395  89.9724566  43.5036864   8.0437362  90.5914753  43.0507336
   9.1896189  90.5223928  44.0376786  14.6838785  79.2183206  55.6883413
  15.6356208  79.3181304  55.7095637  14.5142235  78.4261475  56.1981497
  12.7053164  76.3038790  55.8742814  12.1103097  76.5843802  55.1789302
  12.4202861  76.7932691  56.6459555  11.8360655  90.2561716  44.6345446
  12.7691328  90.1907278  44.8378322  11.7483868  91.0917983  44.1759979
  14.4648672  89.5727587  41.5949394  14.3862303  89.2387450  42.4885152
  15.2858338  90.0649355  41.5940866  17.1626863  82.4389326  54.8025712
  17.1303183  81.5005327  54.9885396  17.7727486  82.5173363  54.0691537
   9.0010194  81.3085379  40.8452916   9.9469298  81.1791587  40.9141334
   8.6224439  80.5700041  41.3222344  17.3121351  79.2300370  54.8483995
  16.7960400  78.4458826  54.6613924  18.1961300  78.9019086  55.0130515
   8.8848886  85.3603125  62.3053573   9.8051896  85.5381724  62.4993620
   8.8498469  84.4159171  62.1533273   7.1853111  79.2335356  40.7807802
   6.2784566  78.9368468  40.8570515   7.4629092  78.9365174  39.9142088
   1.8810959  83.2704160  54.9476354   2.0996968  84.2021268  54.9664388
   2.2936733  82.9112134  55.7331158   8.8015177  73.7772245  46.9352043
   7.9915905  73.4319330  47.3107289   9.4899593  73.4679789  47.5239654
   6.7538824  78.8437366  64.3379103   6.6535551  79.7931723  64.2691194
   6.5360366  78.5155605  63.4655173   5.9551895  76.0922291  40.9219781
   6.8171059  76.4177189  41.1815598   6.1402240  75.3053787  40.4092846
   6.6170094  82.2734505  63.1544165   6.1337176  83.0734865  63.3608054
   6.7031033  82.2842449  62.2011609   2.5443432  86.1639039  55.1912599
   3.4986685  86.1322982  55.1242530   2.3455955  85.7029663  56.0062825
   3.1342814  84.7340155  57.7583396   3.9535703  85.2284234  57.7818234
   3.4079621  83.8172123  57.7300964  12.8909410  77.1250908  47.1211352
  12.0035265  77.4100558  46.9031547  13.3063399  76.9644671  46.2738629
  12.0352623  86.8895582  41.2159372  12.7388473  87.0945585  41.8317028
  11.3115272  87.4572344  41.4808455  12.8650434  82.6405443  47.3361642
  12.8085635  83.0973995  46.4969275  13.4178776  81.8796128  47.1584485
  13.9439321  87.3278111  43.2657832  14.7784925  86.8959310  43.0835307
  13.7823664  87.1560125  44.1934726  13.5985213  83.8310225  44.6314171
  13.5434017  83.6654496  43.6902615  12.9731268  84.5386258  44.7876361
  10.9131120  86.1359137  63.9567734  11.7822280  86.3099789  63.5954369
  10.4337872  86.9553553  63.8343463   6.9081338  73.3318334  44.2099490
   6.8960008  74.2760174  44.3667761   7.8004760  73.1488479  43.9158951
   2.7275219  76.2145906  62.5550608   3.5906680  75.8582711  62.7653932
   2.1540630  75.8759801  63.2426012  27.5273291  95.5074450  51.3399195
  28.2598463  94.9373666  51.5737025  26.7712647  95.1196050  51.7805701
  25.0498712  89.2196024  55.7993804  24.7182037  90.0891435  55.5755019
  24.4544325  88.9032308  56.4787834  18.7854898  92.9591591  43.5323886
  18.9529301  93.8271827  43.8994357  18.5952067  93.1218872  42.6085176
  24.9427375  93.9391110  52.8787154  24.0344252  93.8706518  52.5845915
  24.8914971  94.4163055  53.7068979  26.8089022  92.1407548  54.6565028
  26.1663402  92.4340081  54.0104822  26.3043950  92.0260469  55.4618225
  24.4629185  95.8870721  45.3450887  25.3747041  96.1198108  45.1698585
  23.9538832  96.4707766  44.7825966  22.2500468  92.9072324  58.0126910
  22.0061400  93.6614385  57.4761186  22.5260399  93.2857672  58.8474157
  21.8065160  92.0628757  53.5940748  20.9449639  92.3610011  53.8857486
  21.8327595  92.2799156  52.6621781  33.4090752  98.6721641  51.2111505
  32.6554460  98.1029039  51.0555509  33.5438293  98.6384305  52.1582139
  15.2856720  89.6226623  63.5480579  14.8923665  89.0692821  64.2228224
  16.1022860  89.9337201  63.9387097  18.2024681  91.0384502  61.1400836
  18.9434394  91.6391655  61.0605298  18.4342604  90.2962140  60.5818878
  22.1481844  87.0665605  55.4165118  21.8046113  87.9567247  55.3404228
  22.5160806  86.8767263  54.5534703  19.6979237  91.9023917  48.9822791
  18.8420834  91.5130767  48.8028430  20.1106189  91.9815878  48.1222577
  21.2278384  89.4370260  53.3814351  20.7243180  89.4000395  52.5682156
  21.5208991  90.3463003  53.4411007  17.4721270  89.5208990  52.3880533
  18.3374267  89.3251798  52.0286422  17.5398779  89.2919342  53.3149889
  21.9018430  94.9301308  45.7497334  21.5968565  95.2447457  46.6007477
  22.8548872  95.0082728  45.7924667  15.0783589  91.7511198  49.7596899
  15.6527341  91.5286379  49.0270092  15.6654571  91.8199892  50.5125501
  17.3806257  88.6252447  48.4871969  16.7270669  88.3101464  47.8628584
  17.3386731  88.0028187  49.2131792  23.8457882  93.5482912  49.9241086
  23.1080639  93.0360298  50.2551329  24.0984656  93.1083294  49.1124363
  23.9469509  86.3259164  50.5182855  24.2528386  85.4656527  50.2308770
  24.6722114  86.9176784  50.3181849  21.7557161  95.7031841  57.6164319
  22.1106548  95.9303314  58.4758785  22.4029292  96.0350218  56.9941574
  15.6497024  92.8108372  54.4010660  16.2896403  92.6697131  53.7033623
  14.8174554  92.5242886  54.0249262  20.0276137  90.8208395  58.3648132
  19.3804053  91.5198345  58.2712609  20.7977153  91.2544539  58.7324381
  21.7752132  91.7883806  50.8687417  22.2720832  91.0353768  50.5488487
  21.0039114  91.8248123  50.3030627  29.6281890  97.4924171  52.5105709
  29.6171766  98.3748887  52.1399642  28.7599269  97.1395722  52.3160246
  18.3587101  93.9301189  50.5959102  17.9884889  93.3772229  51.2840007
  18.8546194  93.3259322  50.0434102  26.2454465  96.3872812  48.9775875
  26.7114917  97.2200804  48.9036177  26.6961965  95.9217794  49.6821133
  24.2171127  88.7553399  53.0166776  23.3034207  88.9857626  53.1848983
  24.6464229  88.8391844  53.8680808  13.7552435  91.3405180  56.8412208
  13.8193761  92.2020011  56.4289606  13.6919555  90.7279181  56.1084566
  16.3390811  90.6315164  58.6771797  16.8625213  90.8777461  59.4398107
  16.1203144  91.4635199  58.2574935  17.5443356  91.5728860  56.3621468
  17.2040176  90.7736673  56.7642148  16.8382362  91.8730570  55.7898301
  18.1959828  88.6578172  54.8148791  19.0185897  88.1838650  54.6927681
  18.4397891  89.4368656  55.3147477  16.8368062  91.6866430  45.1111693
  17.5576425  92.0647683  44.6075409  16.2133366  92.4055307  45.2146671
  20.9799185  92.3911579  46.0470025  21.1962799  93.2736217  45.7458853
  20.4993252  91.9997793  45.3175667  17.5794789  92.3399841  52.6721659
  17.5656358  91.4440934  52.3353957  18.2967217  92.3470504  53.3059945
  19.4320920  92.7737181  54.7174787  19.1738698  93.6954251  54.7159117
  18.9005960  92.3767615  55.4075251  16.9831685  91.2214221  47.9409229
  17.1047596  90.2930867  48.1400117  16.6933728  91.2352907  47.0287545
  19.8522876  88.9069131  51.0775949  19.8744572  88.9708464  50.1227929
  20.2690935  88.0673640  51.2716455  30.2306500  98.6424391  49.1155172
  30.6737646  97.8931716  48.7174295  29.3533010  98.6334527  48.7328904
  16.4672765  92.7346218  62.1499162  16.5160920  93.6108341  61.7676931
  17.0095279  92.1923611  61.5770805  24.3629248  96.1110736  60.0592334
  25.2639111  95.9717201  59.7676332  24.4377222  96.2765191  60.9990512
  18.6972053  93.4877591  58.9045520  17.8275363  93.7811157  58.6328109
  18.9331533  94.0718036  59.6252784  21.4011087  89.7057208  56.4210941
  21.9193031  90.4418235  56.0957429  21.0466220  90.0121201  57.2557700
  21.6523681  86.1257490  51.9411837  21.9325435  85.4580679  52.5672264
  22.4374288  86.3186586  51.4286501  25.5232539  94.5475124  55.6883413
  26.4749962  94.6473222  55.7095637  25.3535990  93.7553393  56.1981497
  23.5446919  91.6330707  55.8742814  22.9496851  91.9135720  55.1789302
  23.2596616  92.1224608  56.6459555  28.0020617  97.7681244  54.8025712
  27.9696937  96.8297245  54.9885396  28.6121241  97.8465281  54.0691537
  28.1515106  94.5592287  54.8483995  27.6354154  93.7750744  54.6613924
  29.0355054  94.2311004  55.0130515  25.8125833  88.3033303  50.8079808
  25.6150654  87.9948391  51.6923140  26.4225538  89.0294942  50.9377738
  33.8197167  98.8297251  53.9431749  34.5500556  98.5682539  54.5039452
  33.2104113  98.0925973  53.9833817  31.9012464  96.9705113  54.5406200
  31.1745628  96.8361078  53.9322692  31.4859751  97.2781942  55.3462918
  18.0246865  94.5627273  40.7807802  17.1178321  94.2660386  40.8570515
  18.3022846  94.2657091  39.9142088  21.5699479  88.1842210  48.5576339
  22.1230518  88.6037663  49.2166363  21.8069566  87.2577958  48.5999295
  16.7945650  91.4214208  40.9219781  17.6564814  91.7469107  41.1815598
  16.9795994  90.6345704  40.4092846  24.9478286  90.2942735  48.0655004
  24.3676955  90.9527539  47.6833056  24.6814219  89.4720079  47.6542421
  23.3981853  89.6947793  50.2676324  23.8981631  89.8064327  49.4590643
  24.0417461  89.3908845  50.9077132  23.7303164  92.4542825  47.1211352
  22.8429019  92.7392476  46.9031547  24.1457153  92.2936589  46.2738629
  27.0817701  92.4789346  50.8365691  27.8578091  92.9685799  51.1090308
  26.3565835  92.9047400  51.2937561  29.5190259  93.1916965  51.8939632
  30.1134750  92.9512701  51.1832940  29.5916843  92.4724096  52.5213168
  27.5148994  93.7587093  48.1611762  27.2585928  93.3583729  48.9919969
  26.8901862  94.4730887  48.0361901  31.8261332  96.4983166  50.6683053
  31.2660890  96.5676356  51.4414615  31.2204835  96.3224151  49.9482549
  13.5668973  91.5437824  62.5550608  14.4300435  91.1874629  62.7653932
  12.9934384  91.2051719  63.2426012   1.3015905  29.8483620  40.6677056
   2.0319293  29.5868908  41.2284759   0.6922850  29.1112342  40.7079124
   0.8936088  44.1926050  40.0858315   1.5314498  44.0732797  39.3821655
   0.7756931  45.1406894  40.1446268   5.8485784  41.8552737  38.0644502
   6.5810956  41.2851954  38.2982331   5.0925139  41.4674337  38.5051008
   3.3711204  35.5674311  42.5239111   3.0394529  36.4369722  42.3000326
   2.7756817  35.2510595  43.2033141   3.2639867  40.2869397  39.6032461
   2.3556745  40.2184806  39.3091222   3.2127463  40.7641342  40.4314286
   5.1301514  38.4885836  41.3810335   4.4875894  38.7818369  40.7350129
   4.6256442  38.3738756  42.1863531   2.7841677  42.2349009  32.0696194
   3.6959534  42.4676395  31.8943891   2.2751325  42.8186053  31.5071272
   1.3911260  47.2174827  39.4609775   0.7620122  47.3820541  38.7585843
   1.0036922  47.6316437  40.2320739   5.2700492  48.1529265  36.8154139
   4.5851530  48.5328166  36.2651172   5.3544341  48.7624592  37.5486087
   2.5251423  45.7989224  43.4149483   2.7368319  46.4420984  42.7383864
   2.4781172  44.9651541  42.9471413   3.6397251  48.6761179  41.5871840
   4.4614695  48.2741367  41.3054522   3.6359654  48.5729414  42.5387956
  11.7303244  45.0199928  37.9356811  10.9766953  44.4507326  37.7800816
  11.8650786  44.9862592  38.8827446   0.8451587  50.7939697  45.7693274
   0.8270062  51.6148578  45.2773543   1.7671507  50.6693772  45.9943415
   5.4078893  46.1584858  32.5836033   4.6308336  45.8196017  32.1391195
   6.0870374  46.1637481  31.9090998   3.6470200  45.6318839  39.2402641
   2.9893874  46.3218101  39.3282769   4.4510599  46.0215271  39.5836627
   2.4575658  43.9863212  37.2906582   2.9707540  44.6193204  37.7928292
   3.1076882  43.3864407  36.9249943   3.2237455  48.9669213  35.4185725
   2.7699782  48.1260123  35.4750916   2.5931421  49.6030612  35.7560505
   2.1670374  39.8961199  36.6486393   1.4293131  39.3838586  36.9796635
   2.4197148  39.4561581  35.8369669   1.6670394  50.8045710  36.3535543
   1.9593368  51.3650767  35.6347909   2.1769015  51.0974271  37.1088702
   2.2682002  32.6737451  37.2428162   2.5740878  31.8134815  36.9554077
   2.9934606  33.2655072  37.0427156   5.8067390  45.1728564  35.0458955
   5.6685288  45.3630160  34.1180144   5.4503609  45.9347947  35.5027006
   5.8336769  47.2405091  40.0570226   6.2673276  47.1480381  40.9053280
   6.5468350  47.2162592  39.4190242   6.6952319  47.2828792  42.5903112
   6.8888209  48.1874603  42.8362387   6.5952937  46.8236211  43.4241697
   1.7567428  47.4335535  48.1643992   1.6052934  47.2046087  47.2474076
   1.7472107  48.3906136  48.1775337   1.8105503  45.7555749  28.5814694
   1.1934673  45.0302577  28.4847746   1.3421991  46.5165109  28.2381768
   3.4659634  50.4654657  46.2420474   3.4072181  49.7813878  45.5751057
   3.8679153  51.2073647  45.7901100   3.4677042  48.4294241  44.4734454
   2.5803820  48.0920163  44.5960853   4.0375593  47.6977273  44.7103219
   7.9494382  43.8402459  39.2351015   7.9384258  44.7227174  38.8644948
   7.0811762  43.4874010  39.0405552   4.5666957  42.7351100  35.7021181
   5.0327409  43.5679091  35.6281484   5.0174457  42.2696081  36.4066440
   2.6343188  49.0794921  32.7007333   2.9103032  48.9651516  33.6101208
   1.7647687  48.6812406  32.6619507   2.5383620  35.1031687  39.7412083
   1.6246699  35.3335914  39.9094290   2.9676721  35.1870131  40.5926115
   2.3090078  43.2921579  42.2411977   1.6561528  43.5397486  41.5864430
   2.6870458  42.4785717  41.9074454   1.9511308  50.1669575  48.8184284
   2.4951212  50.7799533  48.3239239   1.3698153  50.7249153  49.3351297
   2.3003730  51.0899313  41.5778862   1.3534065  50.9704664  41.5057189
   2.6486503  50.2021811  41.6605124   2.9084285  51.7080588  38.8648087
   3.8330832  51.5023449  38.7272538   2.7399588  51.4596989  39.7737429
   2.6979601  52.2266255  34.2210179   2.8716478  51.6612678  33.4684031
   3.1908492  53.0267150  34.0389669   8.5518992  44.9902678  35.8400478
   8.9950138  44.2410003  35.4419602   7.6745502  44.9812814  35.4574210
   3.6854773  51.5433020  31.3207077   4.3805678  52.1639712  31.5394391
   4.0277924  50.6928371  31.5959455   5.5846197  48.9932725  32.8494408
   6.1097521  49.3319998  32.1243728   5.4968549  48.0579740  32.6657542
   5.2740103  49.6265629  48.1545606   4.4835646  49.6089768  47.6150105
   5.0373457  50.1653922  48.9094642   5.3937978  46.4758095  45.4678334
   5.4435983  46.3108103  46.4093857   5.2851901  45.6085354  45.0776215
   2.6841740  42.4589023  46.7837641   3.5851603  42.3195488  46.4921639
   2.7589715  42.6243478  47.7235818   6.8956175  48.8955037  45.7120356
   6.6040983  49.2585017  46.5483817   6.2828306  48.1822045  45.5333688
   8.0951857  46.4607916  38.2322926   8.9298748  46.8997721  38.3960486
   8.2310986  45.9846570  37.4131172   5.1443363  44.0187651  44.1800414
   5.6197484  44.2115298  43.3719265   4.2208928  44.0746837  43.9343797
   3.8445032  40.8953411  42.4128719   4.7962455  40.9951509  42.4340943
   3.6748482  40.1031680  42.9226804   1.8659411  37.9808995  42.5988120
   1.2709343  38.2614007  41.9034609   1.5809108  38.4702896  43.3704861
   0.9966902  51.9331921  31.3590753   1.9297575  51.8677483  31.5623628
   0.9090115  52.7688188  30.9005285   3.6254918  51.2497792  28.3194700
   3.5468550  50.9157655  29.2130458   4.4464585  51.7419560  28.3186173
   6.3233110  44.1159531  41.5271019   6.2909430  43.1775532  41.7130703
   6.9333733  44.1943568  40.7936844   6.4727598  40.9070574  41.5729302
   5.9566647  40.1229031  41.3859231   7.3567547  40.5789291  41.7375822
   4.1338325  34.6511590  37.5325115   3.9363146  34.3426678  38.4168447
   4.7438031  35.3773229  37.6623045  12.1409659  45.1775538  40.6677056
  12.8713048  44.9160826  41.2284759  11.5316605  44.4404260  40.7079124
  10.2224957  43.3183400  41.2651507   9.4958120  43.1839365  40.6567998
   9.8072243  43.6260229  42.0708225   3.2690779  36.6421022  34.7900310
   2.6889448  37.3005826  34.4078363   3.0026711  35.8198367  34.3787728
   1.7194345  36.0426080  36.9921631   2.2194123  36.1542614  36.1835950
   2.3629953  35.7387133  37.6322439   2.0515657  38.8021112  33.8456659
   1.1641512  39.0870763  33.6276853   2.4669646  38.6414876  32.9983936
   5.4030193  38.8267633  37.5610998   6.1790583  39.3164086  37.8335615
   4.6778327  39.2525688  38.0182867   7.8402751  39.5395253  38.6184938
   8.4347242  39.2990989  37.9078247   7.9129335  38.8202383  39.2458475
   2.0256680  44.3175648  34.0606949   1.9691882  44.7744200  33.2214581
   2.5785023  43.5566333  33.8829792   5.8361486  40.1065380  34.8857068
   5.5798421  39.7062016  35.7165276   5.2114354  40.8209174  34.7607207
  10.1473824  42.8461454  37.3928360   9.5873382  42.9154643  38.1659922
   9.5417328  42.6702438  36.6727856   3.1045568  49.0048316  29.9903139
   3.9391171  48.5729515  29.8080613   2.9429910  48.8330330  30.9180033
   2.7591460  45.5080430  31.3559478   2.7040264  45.3424701  30.4147922
   2.1337515  46.2156463  31.5121668  11.7329843  59.5217967  40.0858315
  12.3708253  59.4024715  39.3821655  11.6150686  60.4698811  40.1446268
   8.5419549  59.4745396  40.0219840   8.2038060  59.3586460  39.1340375
   9.4109317  59.0736561  40.0020846   4.4006365  61.3280872  36.0116731
   3.8371230  61.2370809  35.2433019   4.2858760  60.5080776  36.4919224
   9.0239332  60.6280247  45.9806046   9.0127973  60.2333046  45.1086549
   9.1859971  59.8946320  46.5739817   1.9470797  62.8232064  38.8500951
   2.7392088  62.4822888  38.4347251   2.1867447  62.9327039  39.7703105
   9.9805923  64.9951840  31.3231196   9.3293903  65.5805920  30.9365210
  10.7750286  65.5258035  31.3826233   3.9061550  62.0840977  31.7218330
   4.6792426  61.5369964  31.5831206   4.2586949  62.9485226  31.9332792
   5.7446593  63.4117359  44.9285230   5.4536459  64.3162990  44.8131896
   6.3803577  63.4533887  45.6429299   6.6702800  60.7894208  41.5186589
   7.2666372  60.5650230  40.8043552   6.7277771  60.0478953  42.1212037
   6.2427828  58.2433643  29.3536780   6.4953349  57.7215164  28.5920243
   5.3052387  58.0799788  29.4563464  11.2871111  57.2469421  37.1611523
  12.0734200  56.8288844  36.8101940  11.5509815  58.1515513  37.3293172
  11.4581188  62.6842272  31.8600180  10.8227021  62.7576898  32.5721085
  11.1278595  63.2735870  31.1819259   5.9624117  60.1461749  31.5561155
   5.8460375  59.4706652  32.2242239   6.0726377  59.6594123  30.7393308
   8.3055658  59.6071896  35.2607844   7.9413865  59.0802517  35.9720766
   9.1622774  59.2170365  35.0874330  14.2104959  50.8966229  42.5239111
  13.8788283  51.7661640  42.3000326  13.6150572  50.5802513  43.2033141
   7.9461145  54.6361796  30.2569193   8.1135547  55.5042032  30.6239664
   7.7558314  54.7989077  29.3330482  10.7036478  63.0978775  41.9235023
  10.4037201  64.0003813  41.8150831  10.3587538  62.8310958  42.7756176
   4.1548960  59.5492571  37.9571728   3.2299456  59.4168786  38.1649419
   4.4033373  60.3286791  38.4541670   7.9250366  57.0919453  31.2415860
   7.8049991  57.5376504  32.0801340   7.2302954  57.4404771  30.6829398
   1.5157771  59.1925845  38.7915517   1.6450152  59.4460324  39.7054928
   0.8355222  59.7853553  38.4720172   5.6857258  69.8623095  34.8905991
   5.6081288  70.8130920  34.9694472   5.0818902  69.5168967  35.5480917
   8.1774488  57.0350960  47.5467358   7.4007822  57.5944881  47.5370223
   8.8165051  57.5207743  48.0682228  15.9695268  53.8177753  41.3810335
  15.3269649  54.1110286  40.7350129  15.4650197  53.7030674  42.1863531
  13.6235432  57.5640926  32.0696194  14.5353288  57.7968313  31.8943891
  13.1145079  58.1477971  31.5071272   6.4320860  59.8436414  47.1085325
   7.1735544  60.3821458  46.8320148   5.7257845  60.4702703  47.2656877
  11.9076200  61.9865554  45.7057486  12.3159556  61.5447965  44.9612119
  11.1853461  61.4118182  45.9591679   8.2607270  56.9238161  43.0791043
   9.1068465  57.3477575  43.2225692   8.2005907  56.2671785  43.7729606
  12.2305014  62.5466745  39.4609775  11.6013877  62.7112459  38.7585843
  11.8430676  62.9608354  40.2320739  11.4106715  54.5842529  44.7372217
  11.1667647  55.3384590  44.2006493  11.6866646  54.9627877  45.5719464
  13.3645178  61.1281142  43.4149483  13.5762073  61.7712902  42.7383864
  13.3174926  60.2943458  42.9471413  10.9671407  53.7398962  40.3186055
  10.1055886  54.0380216  40.6102792  10.9933841  53.9569361  39.3867087
   7.7832976  62.2841153  36.7259860   8.2471322  62.5628856  35.9364483
   7.5189774  61.3824598  36.5432951   4.6757057  61.8312634  39.6639624
   5.2458414  62.2599903  39.0257108   5.2665169  61.5495219  40.3623809
   6.7201862  58.4064305  33.5349425   7.4225906  58.8585349  34.0023352
   6.3882491  57.7648124  34.1629319   5.1682224  56.9976062  47.9100635
   4.5380884  57.6792343  48.1436032   5.0618312  56.8859144  46.9653773
   2.4141942  57.0292437  35.7950036   1.6173105  57.1411131  36.3133531
   2.1867534  57.3679089  34.9290926   8.2447609  63.5537140  43.7432550
   8.3092042  64.0157548  44.5790722   7.5358533  62.9234505  43.8714860
   7.9595627  65.2205248  33.6111531   7.8241302  66.0656784  34.0396379
   8.5005439  65.4224526  32.8477464   4.4462966  51.2996828  50.2725886
   4.0529912  50.7463026  50.9473530   5.2629107  51.6107406  50.6632403
   1.4125024  62.7380686  34.1839456   1.9249545  63.5323936  34.3345020
   2.0647737  62.0406976  34.1173057   3.2219909  65.8546442  36.2662209
   3.3986537  66.7764407  36.0783193   4.0176742  65.5404861  36.6956589
   7.3630927  52.7154707  47.8646142   8.1040641  53.3161860  47.7850605
   7.5948850  51.9732345  47.3064185   2.5072265  57.9011074  46.1424372
   2.3925781  56.9996331  46.4431471   1.6516783  58.1474771  45.7909189
   9.5864103  65.8428814  47.7411873   9.1427957  65.0565193  47.4232777
  10.2481317  66.0307965  47.0755764   4.3451224  67.3724616  42.2672551
   4.8958650  67.2441679  41.4949545   3.5062700  67.6719505  41.9167444
  11.6845341  66.1231614  45.7693274  11.6663817  66.9440495  45.2773543
  12.6065261  65.9985690  45.9943415   8.1418395  63.6375744  46.6116782
   8.6746732  62.8764032  46.3816090   7.6132477  63.3449396  47.3540937
  11.3088090  48.7435810  42.1410424  10.9652360  49.6337451  42.0649535
  11.6767053  48.5537467  41.2780009  11.2738373  58.7344421  30.6482859
  10.7584997  59.5049026  30.8871247  11.0015682  58.0609557  31.2715921
   8.8585484  53.5794122  35.7068098   8.0027081  53.1900972  35.5273736
   9.2712436  53.6586082  34.8467883  10.3884631  51.1140465  40.1059657
   9.8849426  51.0770600  39.2927463  10.6815238  52.0233208  40.1656314
   6.6327517  51.1979195  39.1125839   7.4980513  51.0022003  38.7531729
   6.7005026  50.9689546  40.0395196  16.2472647  61.4876776  32.5836033
  15.4702090  61.1487935  32.1391195  16.9264128  61.4929399  31.9090998
  11.0624676  56.6071513  32.4742640  10.7574812  56.9217662  33.3252784
  12.0155118  56.6852933  32.5169973   9.5071108  62.7661736  34.1235594
   8.9792470  62.0314496  33.8108832   9.0058611  63.5436413  33.8775563
   4.2389836  53.4281403  36.4842206   4.8133588  53.2056584  35.7515399
   4.8260818  53.4970097  37.2370807   4.5659423  55.4585864  30.5038091
   3.7296735  55.7960550  30.8247366   4.4264193  55.3234843  29.5665228
   6.5412503  50.3022651  35.2117275   5.8876916  49.9871669  34.5873890
   6.4992978  49.6798392  35.9377098   7.6523708  60.5841947  27.1270567
   6.7450770  60.3531200  27.3261716   8.1494740  59.7879566  27.3144549
  10.5591787  69.2939454  30.0467254   9.8853486  69.5971151  30.6552211
  10.9457609  70.0968534  29.6972711   9.7750244  56.7904585  39.5364923
   8.8572805  57.0119532  39.3786611  10.1910387  56.8650896  38.6776630
  10.5585292  58.1896001  34.6667603  11.3057111  58.7017398  34.3574725
  10.8276881  57.8680053  35.5271997   8.8311942  60.6854541  31.6494558
   7.9223161  60.4013574  31.7467027   8.8607026  61.1053620  30.7897864
  14.0631209  64.2961131  35.4185725  13.6093536  63.4552041  35.4750916
  13.4325176  64.9322529  35.7560505  12.5064148  66.1337628  36.3535543
  12.7987123  66.6942685  35.6347909  13.0162769  66.4266189  37.1088702
  13.1075756  48.0029369  37.2428162  13.4134633  47.1426732  36.9554077
  13.8328361  48.5946989  37.0427156   7.3796836  58.2983162  37.7504353
   7.4345446  57.3456998  37.6746829   6.5688038  58.4542601  38.2345651
   8.5288030  62.2263285  28.9882636   8.0907459  61.5099144  28.5288273
   9.2698470  62.4539400  28.4267728   5.3189196  56.9160222  35.5094732
   4.5057061  57.2154392  35.9159924   5.8148190  56.5215911  36.2269214
   7.4697774  66.9117979  37.4428996   7.4273952  67.1378825  36.5137528
   8.3860472  66.6781353  37.5914798  10.9163407  57.3802046  44.3409626
  11.2712795  57.6073519  45.2004091  11.5635539  57.7120423  43.7186881
   4.8103270  54.4878577  41.1255967   5.4502650  54.3467336  40.4278930
   3.9780801  54.2013091  40.7494569   5.5863574  63.7881008  37.2390959
   6.3804173  63.2931328  37.0373534   4.8755267  63.2598871  36.8758665
  10.4058419  66.1699103  41.5903327  10.4595441  66.7390040  42.3581043
   9.5373200  66.3400988  41.2257364   1.8946338  57.9324089  33.3150712
   0.9643926  57.8708545  33.5320674   1.9903810  57.4100042  32.5187353
   1.8131887  54.4578902  35.9028954   2.0738704  55.3724236  35.7938114
   2.6349059  53.9903345  36.0525566   3.2856812  55.8716659  43.0727778
   3.9579866  55.6634022  42.4240427   2.4586599  55.6738745  42.6333010
   9.1882384  52.4978600  45.0893439   8.5410299  53.1968550  44.9957915
   9.9583400  52.9314744  45.4569687  12.5961182  62.7627453  48.1643992
  12.4446689  62.5338004  47.2474076  12.5865862  63.7198054  48.1775337
   9.3646519  60.3359365  43.1490259  10.2938579  60.4870525  42.9759226
   8.9437549  60.4243386  42.2938905   8.1634850  64.3610030  40.9188796
   8.0245936  63.9928814  41.7914734   7.3749447  64.8757669  40.7472754
   8.7583002  69.4619126  32.2614333   8.9334758  68.9907169  33.0759955
   8.0715790  70.0884892  32.4895594   9.7140066  63.7391632  38.3077634
   9.3789898  63.6992402  39.2035284   9.2144011  63.0736348  37.8348044
   3.6884309  59.1459262  43.8330215   3.5504107  58.4139501  44.4341754
   4.5989233  59.0568163  43.5514403  12.6499257  61.0847667  28.5814694
  12.0328428  60.3594495  28.4847746  12.1815746  61.8457027  28.2381768
   6.3166610  58.8579222  43.3213895   7.0266229  58.2172414  43.2800513
   6.2735918  59.1092117  44.2440076   5.0295544  55.8444440  45.1409534
   4.4932901  55.3935178  45.7931131   4.4412253  55.9790348  44.3979999
   3.3244088  72.6108489  39.0354193   3.5640686  73.2427013  39.7133212
   2.4813284  72.2596529  39.3219552   4.4397803  55.3033091  27.7035998
   3.5627269  55.1821892  27.3398245   4.9155556  54.5119169  27.4514887
  14.3070796  63.7586159  44.4734454  13.4197575  63.4212081  44.5960853
  14.8769347  63.0269190  44.7103219   7.8371950  68.4187611  41.4395697
   7.7642121  69.2242583  41.9515002   7.3949343  68.6179577  40.6143718
   7.6261729  67.6559381  34.9498519   6.8429251  68.1981062  35.0436743
   8.3254474  68.1733361  35.3492760  10.9358379  53.4654011  37.5932724
  11.4327079  52.7123973  37.2733794  10.1645361  53.5018328  37.0275933
  10.2970633  68.3174445  43.5953856  11.0098605  68.9521910  43.5229757
   9.8060662  68.4138311  42.7793857  12.0188160  62.2225698  35.1671147
  11.0844439  62.3427161  34.9975852  12.1964828  61.3198165  34.9031157
   7.5193348  55.6071394  37.3204408   7.1491136  55.0542434  38.0085314
   8.0152440  55.0029527  36.7679409   5.3482547  66.0668889  44.4159426
   6.0492006  66.7005372  44.5688821   4.8777662  66.4083620  43.6555066
  13.4736942  64.4086839  32.7007333  13.7496786  64.2943433  33.6101208
  12.6041441  64.0104324  32.6619507  13.3777374  50.4323604  39.7412083
  12.4640454  50.6627831  39.9094290  13.8070475  50.5162048  40.5926115
  10.1091006  68.6573190  36.3440147  10.2913401  67.8394845  36.8067899
  10.9323992  68.8740882  35.9065037  10.4433172  67.5841375  33.6055196
  10.9720938  67.0733829  32.9925358  10.7061391  67.2683905  34.4700729
   9.1971406  59.3633307  48.7278014   8.5212043  59.2627437  49.3980389
  10.0199039  59.2072521  49.1914011   0.9450265  65.6005244  41.3490529
   1.5303701  64.8548932  41.4818433   0.7475103  65.9109201  42.2327193
   3.7988920  68.6356491  36.3652971   3.1299295  69.1202619  35.8817012
   3.6601790  68.8825712  37.2796350   7.9394188  70.6700235  42.9635630
   8.4912496  70.8331856  43.7284715   8.2800382  71.2604673  42.2915655
   2.9158682  53.0175385  43.5657515   2.9800008  53.8790216  43.1534912
   2.8525802  52.4049386  42.8329873   2.3910954  55.0898517  47.2130549
   3.0182993  54.7075595  47.8268073   1.5338873  54.8712719  47.5786241
  12.7905063  65.4961492  48.8184284  13.3344967  66.1091451  48.3239239
  12.2091908  66.0541071  49.3351297  11.0762576  68.6182210  39.9499312
  10.9513715  67.8171950  39.4410258  11.7341667  69.1128404  39.4613282
   2.6970744  54.9730943  39.1276452   1.9757330  55.5866911  38.9883926
   3.4864000  55.5088708  39.0493098   5.4997057  52.3085369  45.4017104
   6.0231459  52.5547666  46.1643413   5.2809391  53.1405404  44.9820241
   0.8964339  54.5789044  33.2688229   0.5677045  53.6986423  33.0863335
   1.2503709  54.5236713  34.1564618  10.1443917  66.2143947  37.7783214
   9.9968880  65.2860654  37.9590784  10.9697411  66.2364037  37.2940290
   4.0106162  54.8662014  33.6363707   4.3502234  55.3947935  32.9142315
   4.4578282  55.2042420  34.4122273   6.7049603  53.2499064  43.0866775
   6.3646423  52.4506878  43.4887454   5.9988609  53.5500775  42.5143608
   7.3566074  50.3348377  41.5394098   8.1792144  49.8608855  41.4172988
   7.6004138  51.1138861  42.0392784   5.9974309  53.3636635  31.8356999
   6.7182671  53.7417888  31.3320716   5.3739613  54.0825512  31.9391977
  10.1405432  54.0681784  32.7715332  10.3569046  54.9506422  32.4704160
   9.6599499  53.6767998  32.0420974   4.8804653  57.0267498  39.3486076
   4.7349234  57.3407801  40.2410358   4.4029857  57.6452398  38.7956975
   6.7401036  54.0170046  39.3966966   6.7262605  53.1211139  39.0599264
   7.4573464  54.0240709  40.0305252   8.5927167  54.4507386  41.4420093
   8.3344945  55.3724456  41.4404424   8.0612207  54.0537820  42.1320557
  13.5373355  67.5558173  34.2210179  13.7110233  66.9904595  33.4684031
  14.0302247  68.3559068  34.0389669   6.1437932  52.8984426  34.6654536
   6.2653843  51.9701072  34.8645423   5.8539974  52.9123112  33.7532851
   9.0129122  50.5839336  37.8021256   9.0350819  50.6478669  36.8473235
   9.4297181  49.7443845  37.9961762  14.5248528  66.8724937  31.3207077
  15.2199433  67.4931630  31.5394391  14.8671678  66.0220288  31.5959455
  16.4239951  64.3224643  32.8494408  16.9491275  64.6611916  32.1243728
  16.3362304  63.3871658  32.6657542   8.0860000  68.2358716  44.9784284
   8.3947126  67.9907863  45.8506984   8.8835482  68.4405355  44.4903154
   8.1080612  70.3896626  37.2089661   7.6685602  69.8973005  37.9022517
   8.8588729  69.8469594  36.9681736   5.5554484  65.9334635  39.2811962
   4.9334493  65.2705340  38.9814190   6.2259351  65.9595767  38.5985610
   5.6279011  54.4116423  48.8744468   5.6767167  55.2878546  48.4922238
   6.1701526  53.8693816  48.3016112   5.1167991  64.4838559  32.7570423
   5.2656111  65.1674023  32.1037096   5.9234434  64.4643649  33.2719879
  13.5235495  57.7880941  46.7837641  14.4245357  57.6487406  46.4921639
  13.5983469  57.9535396  47.7235818   7.8578300  55.1647796  45.6290827
   6.9881609  55.4581362  45.3573416   8.0937780  55.7488241  46.3498091
   2.8720624  60.5103736  33.7631492   2.6266666  59.6066066  33.9611702
   3.0416538  60.5120887  32.8210970  10.5617334  51.3827413  43.1456248
  11.0799278  52.1188439  42.8202736  10.2072466  51.6891406  43.9803007
   2.1416271  56.2432094  31.2617653   1.4485516  56.3176449  30.6057689
   1.8968023  55.4792437  31.7839170  10.8129928  47.8027695  38.6657144
  11.0931682  47.1350884  39.2917571  11.5980535  47.9956791  38.1531808
   8.6163396  66.9786689  30.2282170   8.0437363  67.5976876  29.7752642
   9.1896190  67.5286051  30.7622092  12.7053166  53.3100912  42.5988120
  12.1103098  53.5905925  41.9034609  12.4202862  53.7994813  43.3704861
  11.8360656  67.2623839  31.3590753  12.7691329  67.1969401  31.5623628
  11.7483869  68.0980106  30.9005285  14.4648673  66.5789709  28.3194700
  14.3862304  66.2449573  29.2130458  15.2858340  67.0711477  28.3186173
   9.0010195  58.3147502  27.5698223   9.9469300  58.1853710  27.6386641
   8.6224440  57.5762164  28.0467651  14.9732079  49.9803508  37.5325115
  14.7756901  49.6718596  38.4168447  15.5831785  50.7065147  37.6623045
   8.8848887  62.3665248  49.0298880   9.8051897  62.5443847  49.2238926
   8.8498470  61.4221293  48.8778579   7.1853112  56.2397478  27.5053108
   6.2784567  55.9430591  27.5815822   7.4629093  55.9427296  26.6387394
   1.8810960  60.2766283  41.6721661   2.0996970  61.2083390  41.6909695
   2.2936734  59.9174257  42.4576465   8.8015178  50.7834368  33.6597349
   7.9915906  50.4381453  34.0352596   9.4899595  50.4741912  34.2484961
  10.7305726  49.8612415  35.2821646  11.2836765  50.2807868  35.9411669
  10.9675812  48.9348163  35.3244602   6.7538825  55.8499488  51.0624410
   6.6535552  56.7993845  50.9936501   6.5360367  55.5217727  50.1900480
   5.9551897  53.0984413  27.6465087   6.8171061  53.4239312  27.9060905
   6.1402241  52.3115909  27.1338153  14.1084533  51.9712940  34.7900310
  13.5283202  52.6297744  34.4078363  13.8420466  51.1490284  34.3787728
  12.5588100  51.3717997  36.9921631  13.0587878  51.4834532  36.1835950
  13.2023707  51.0679050  37.6322439   6.6170095  59.2796627  49.8789472
   6.1337177  60.0796987  50.0853361   6.7031034  59.2904572  48.9256916
   2.5443433  63.1701162  41.9157905   3.4986686  63.1385104  41.8487837
   2.3455956  62.7091786  42.7308131   3.1342815  61.7402278  44.4828703
   3.9535704  62.2346357  44.5063540   3.4079623  60.8234246  44.4546271
  12.8909411  54.1313030  33.8456659  12.0035266  54.4162681  33.6276853
  13.3063400  53.9706794  32.9983936  18.6796506  54.8687170  38.6184938
  19.2740997  54.6282906  37.9078247  18.7523090  54.1494301  39.2458475
  12.0352625  63.8957705  27.9404679  12.7388475  64.1007707  28.5562334
  11.3115273  64.4634467  28.2053762  12.8650435  59.6467566  34.0606949
  12.8085636  60.1036118  33.2214581  13.4178777  58.8858251  33.8829792
  16.6755241  55.4357298  34.8857068  16.4192175  55.0353934  35.7165276
  16.0508109  56.1501092  34.7607207   4.0562787  69.6090098  39.1446546
   3.9395172  70.5535531  39.0425236   3.2355234  69.3063660  39.5332345
  13.9439322  64.3340234  29.9903139  14.7784926  63.9021433  29.8080613
  13.7823665  64.1622248  30.9180033  13.5985214  60.8372347  31.3559478
  13.5434018  60.6716619  30.4147922  12.9731269  61.5448380  31.5121668
  10.9131121  63.1421259  50.6813041  11.7822281  63.3161911  50.3199676
  10.4337873  63.9615676  50.5588770   6.9081340  50.3380456  30.9344796
   6.8960009  51.2822296  31.0913067   7.8004762  50.1550602  30.6404258
   5.0817302  70.2618360  42.3602474   5.9844548  70.2941970  42.6768969
   4.8554672  69.3318811  42.3748810   6.8370904  69.0149347  39.0212553
   5.8866535  69.0151208  38.9076925   7.1403390  68.2682081  38.5048588
  10.7233459  46.9323233  35.1890733   9.9565855  46.3781720  35.3347415
  11.1344164  47.0045102  36.0504885   2.7275220  53.2208029  49.2795914
   3.5906682  52.8644834  49.4899239   2.1540631  52.8821924  49.9671319
  20.8199678  80.3243757  31.3231196  20.1687658  80.9097838  30.9365210
  21.6144041  80.8549952  31.3826233  14.7455305  77.4132895  31.7218330
  15.5186181  76.8661882  31.5831206  15.0980704  78.2777144  31.9332792
  17.0821583  73.5725561  29.3536780  17.3347103  73.0507082  28.5920243
  16.1446142  73.4091706  29.4563464  22.2974943  78.0134189  31.8600180
  21.6620776  78.0868816  32.5721085  21.9672349  78.6027788  31.1819259
  16.8017872  75.4753667  31.5561155  16.6854130  74.7998570  32.2242239
  16.9120131  74.9886041  30.7393308  18.7854899  69.9653713  30.2569193
  18.9529302  70.8333950  30.6239664  18.5952069  70.1280995  29.3330482
  18.7644120  72.4211371  31.2415860  18.6443746  72.8668422  32.0801340
  18.0696709  72.7696689  30.6829398  11.3020951  71.9939776  38.8366559
  10.5120005  72.2497304  38.3606670  11.7932198  72.8088113  38.9418600
   9.5858654  72.2470266  41.2681550   9.8366692  73.1317276  41.5339126
  10.1218202  72.0674868  40.4956642  12.2518779  78.0672604  34.1839456
  12.7643299  78.8615854  34.3345020  12.9041492  77.3698894  34.1173057
  10.2167696  76.3961258  34.9599026  11.0542918  76.8058266  34.7432734
  10.3945963  75.4560700  34.9299220  22.1132128  74.0636339  30.6482859
  21.5978751  74.8340943  30.8871247  21.8409436  73.3901475  31.2715921
  15.4053177  70.7877781  30.5038091  14.5690490  71.1252468  30.8247366
  15.2657947  70.6526761  29.5665228  18.4917463  75.9133864  27.1270567
  17.5844525  75.6823118  27.3261716  18.9888495  75.1171484  27.3144549
  21.3985542  84.6231371  30.0467254  20.7247240  84.9263068  30.6552211
  21.7851364  85.4260452  29.6972711  19.6705696  76.0146459  31.6494558
  18.7616916  75.7305492  31.7467027  19.7000780  76.4345538  30.7897864
  24.9024964  79.6253049  35.4185725  24.4487291  78.7843959  35.4750916
  24.2718930  80.2614447  35.7560505  10.2393867  73.7351973  35.6309760
  10.0418266  73.1421334  34.9060826   9.6840531  73.4304183  36.3485699
  19.3681784  77.5555203  28.9882636  18.9301214  76.8391062  28.5288273
  20.1092225  77.7831318  28.4267728  12.7340092  73.2616007  33.3150712
  11.8037680  73.2000463  33.5320674  12.8297564  72.7391960  32.5187353
  12.6525641  69.7870820  35.9028954  12.9132459  70.7016153  35.7938114
  13.4742814  69.3195263  36.0525566  19.5976757  84.7911044  32.2614333
  19.7728513  84.3199087  33.0759955  18.9109545  85.4176810  32.4895594
  23.4893012  76.4139584  28.5814694  22.8722182  75.6886413  28.4847746
  23.0209500  77.1748945  28.2381768  14.1637842  87.9400407  39.0354193
  14.4034440  88.5718931  39.7133212  13.3207039  87.5888447  39.3219552
  15.2791558  70.6325009  27.7035998  14.4021024  70.5113810  27.3398245
  15.7549311  69.8411087  27.4514887   6.7993698  75.4202168  37.7977505
   7.4864738  75.1063899  37.2098520   6.6441826  76.3243533  37.5244757
  11.6028420  70.3092365  42.2262529  11.5186609  69.7018035  41.4912939
  10.7811126  70.8001383  42.2272025  16.1876301  81.3960807  44.4159426
  16.8885761  82.0297290  44.5688821  15.7171416  81.7375538  43.6555066
  24.3130697  79.7378756  32.7007333  24.5890541  79.6235351  33.6101208
  23.4435196  79.3396241  32.6619507   6.3761674  73.5002762  40.0694972
   6.4145773  72.9666353  40.8632090   5.8701967  72.9737967  39.4505949
  10.0070251  72.2266864  33.1448904  10.3023693  71.3177542  33.0915957
   9.1058287  72.2054603  32.8229906  11.7358093  69.9080962  33.2688229
  11.4070799  69.0278341  33.0863335  12.0897464  69.8528630  34.1564618
  14.8499916  70.1953931  33.6363707  15.1895989  70.7239853  32.9142315
  15.2972037  70.5334338  34.4122273  16.8368063  68.6928553  31.8356999
  17.5576426  69.0709806  31.3320716  16.2133367  69.4117430  31.9391977
  24.3767110  82.8850091  34.2210179  24.5503987  82.3196513  33.4684031
  24.8696001  83.6850985  34.0389669  10.1944070  74.8964760  42.2873737
   9.6497538  75.6724568  42.4194012  11.0723420  75.2435564  42.1292859
  25.3642282  82.2016855  31.3207077  26.0593187  82.8223548  31.5394391
  25.7065433  81.3512206  31.5959455  10.9810092  74.0234656  45.1803894
  10.2391828  74.1717291  45.7668525  10.6602836  74.2842922  44.3170644
  27.2633706  79.6516560  32.8494408  27.7885030  79.9903833  32.1243728
  27.1756058  78.7163576  32.6657542  12.9810026  71.5724011  31.2617653
  12.2879271  71.6468366  30.6057689  12.7361778  70.8084355  31.7839170
  19.4557151  82.3078607  30.2282170  18.8831118  82.9268794  29.7752642
  20.0289945  82.8577968  30.7622092  22.6754411  82.5915757  31.3590753
  23.6085084  82.5261318  31.5623628  22.5877623  83.4272024  30.9005285
  25.3042427  81.9081627  28.3194700  25.2256059  81.5741491  29.2130458
  26.1252094  82.4003395  28.3186173  19.8403949  73.6439419  27.5698223
  20.7863054  73.5145627  27.6386641  19.4618194  72.9054081  28.0467651
  18.0246867  71.5689396  27.5053108  17.1178322  71.2722508  27.5815822
  18.3022848  71.2719214  26.6387394   8.9424807  72.8895759  37.9552155
   8.6227591  72.0361067  37.6626529   8.3958235  73.1044337  38.7110122
  12.7204714  75.6058200  41.6721661  12.9390724  76.5375308  41.6909695
  13.1330488  75.2466175  42.4576465  16.7945651  68.4276331  27.6465087
  17.6564815  68.7531229  27.9060905  16.9795995  67.6407827  27.1338153
   8.8113067  76.5098671  39.9245276   8.1176538  76.0952623  39.4115231
   9.5586058  76.5519207  39.3278695  10.7249809  76.4416924  37.8011291
  10.7020498  76.5404612  36.8493174  11.0350446  77.2882075  38.1228457
  13.9736569  77.0694196  44.4828703  14.7929458  77.5638274  44.5063540
  14.2473377  76.1526164  44.4546271  22.8746379  79.2249623  27.9404679
  23.5782229  79.4299625  28.5562334  22.1509028  79.7926384  28.2053762
  24.7833077  79.6632152  29.9903139  25.6178680  79.2313350  29.8080613
  24.6217419  79.4914165  30.9180033  24.4378969  76.1664265  31.3559478
  24.3827772  76.0008536  30.4147922  23.8125024  76.8740298  31.5121668
   9.2271484  71.4032329  45.1820900   9.8730347  70.8931283  45.6708125
   9.0188635  72.1401011  45.7564325  17.7475094  65.6672374  30.9344796
  17.7353764  66.6114214  31.0913067  18.6398516  65.4842519  30.6404258
  33.4117352  90.1801803  40.0858315  34.0495762  90.0608550  39.3821655
  33.2938195  91.1282647  40.1446268  30.2207058  90.1329231  40.0219840
  29.8825569  90.0170296  39.1340375  31.0896826  89.7320396  40.0020846
  26.0793874  91.9864707  36.0116731  25.5158739  91.8954644  35.2433019
  25.9646269  91.1664612  36.4919224  30.7026841  91.2864083  45.9806046
  30.6915482  90.8916881  45.1086549  30.8647480  90.5530155  46.5739817
  23.6258306  93.4815899  38.8500951  24.4179597  93.1406724  38.4347251
  23.8654956  93.5910874  39.7703105  31.6593432  95.6535675  31.3231196
  31.0081412  96.2389755  30.9365210  32.4537795  96.1841870  31.3826233
  25.5849059  92.7424812  31.7218330  26.3579935  92.1953799  31.5831206
  25.9374458  93.6069062  31.9332792  27.4234102  94.0701194  44.9285230
  27.1323968  94.9746825  44.8131896  28.0591086  94.1117722  45.6429299
  28.3490309  91.4478043  41.5186589  28.9453881  91.2234065  40.8043552
  28.4065280  90.7062788  42.1212037  27.9215337  88.9017478  29.3536780
  28.1740858  88.3799000  28.5920243  26.9839896  88.7383624  29.4563464
  32.9658620  87.9053257  37.1611523  33.7521709  87.4872680  36.8101940
  33.2297324  88.8099349  37.3293172  33.1368697  93.3426107  31.8600180
  32.5014530  93.4160733  32.5721085  32.8066104  93.9319706  31.1819259
  38.3667047  87.8428490  38.0644502  39.0992219  87.2727707  38.2982331
  37.6106403  87.4550090  38.5051008  27.6411626  90.8045584  31.5561155
  27.5247884  90.1290488  32.2242239  27.7513886  90.3177958  30.7393308
  29.9843167  90.2655731  35.2607844  29.6201374  89.7386352  35.9720766
  30.8410283  89.8754200  35.0874330  29.6248654  85.2945631  30.2569193
  29.7923056  86.1625867  30.6239664  29.4345823  85.4572913  29.3330482
  32.3823987  93.7562610  41.9235023  32.0824710  94.6587649  41.8150831
  32.0375047  93.4894793  42.7756176  25.8336469  90.2076407  37.9571728
  24.9086965  90.0752621  38.1649419  26.0820882  90.9870626  38.4541670
  35.7821131  86.2745150  39.6032461  34.8738008  86.2060559  39.3091222
  35.7308727  86.7517095  40.4314286  29.6037875  87.7503289  31.2415860
  29.4837500  88.1960339  32.0801340  28.9090463  88.0988606  30.6829398
  23.1945280  89.8509680  38.7915517  23.3237661  90.1044159  39.7054928
  22.5142731  90.4437388  38.4720172  29.8561997  87.6934796  47.5467358
  29.0795331  88.2528716  47.5370223  30.4952560  88.1791579  48.0682228
  37.6482777  84.4761589  41.3810335  37.0057158  84.7694122  40.7350129
  37.1437706  84.3614509  42.1863531  35.3022941  88.2224762  32.0696194
  36.2140797  88.4552148  31.8943891  34.7932588  88.8061806  31.5071272
  28.1108369  90.5020249  47.1085325  28.8523053  91.0405293  46.8320148
  27.4045354  91.1286538  47.2656877  33.5863709  92.6449390  45.7057486
  33.9947065  92.2031800  44.9612119  32.8640970  92.0702017  45.9591679
  29.9394779  87.5821996  43.0791043  30.7855974  88.0061410  43.2225692
  29.8793416  86.9255621  43.7729606  33.9092523  93.2050580  39.4609775
  33.2801386  93.3696294  38.7585843  33.5218185  93.6192190  40.2320739
  37.7881755  94.1405018  36.8154139  37.1032793  94.5203919  36.2651172
  37.8725604  94.7500345  37.5486087  35.0432687  91.7864977  43.4149483
  35.2549582  92.4296737  42.7383864  34.9962435  90.9527294  42.9471413
  29.4620485  92.9424988  36.7259860  29.9258831  93.2212691  35.9364483
  29.1977283  92.0408433  36.5432951  26.3544566  92.4896470  39.6639624
  26.9245923  92.9183738  39.0257108  26.9452678  92.2079055  40.3623809
  28.3989371  89.0648141  33.5349425  29.1013415  89.5169184  34.0023352
  28.0670000  88.4231960  34.1629319  26.8469733  87.6559897  47.9100635
  26.2168393  88.3376178  48.1436032  26.7405821  87.5442979  46.9653773
  22.1414705  87.3231693  38.8366559  21.3513759  87.5789222  38.3606670
  22.6325953  88.1380031  38.9418600  36.1578515  94.6636932  41.5871840
  36.9795958  94.2617120  41.3054522  36.1540918  94.5605167  42.5387956
  24.0929451  87.6876273  35.7950036  23.2960614  87.7994967  36.3133531
  23.8655043  88.0262925  34.9290926  29.9235118  94.2120976  43.7432550
  29.9879551  94.6741383  44.5790722  29.2146042  93.5818341  43.8714860
  44.2484508  91.0075681  37.9356811  43.4948216  90.4383079  37.7800816
  44.3832049  90.9738345  38.8827446  29.6383136  95.8789083  33.6111531
  29.5028811  96.7240619  34.0396379  30.1792948  96.0808361  32.8477464
  23.0912533  93.3964521  34.1839456  23.6037054  94.1907772  34.3345020
  23.7435246  92.6990812  34.1173057  31.2651612  96.5012650  47.7411873
  30.8215466  95.7149028  47.4232777  31.9268826  96.6891800  47.0755764
  33.3632850  96.7815450  45.7693274  33.3451326  97.6024331  45.2773543
  34.2852770  96.6569525  45.9943415  29.8205904  94.2959579  46.6116782
  30.3534241  93.5347867  46.3816090  29.2919986  94.0033231  47.3540937
  21.0561450  91.7253176  34.9599026  21.8936672  92.1350184  34.7432734
  21.2339718  90.7852618  34.9299220  32.9525882  89.3928256  30.6482859
  32.4372506  90.1632861  30.8871247  32.6803191  88.7193392  31.2715921
  30.5372993  84.2377957  35.7068098  29.6814589  83.8484807  35.5273736
  30.9499945  84.3169918  34.8467883  37.9260156  92.1460611  32.5836033
  37.1489599  91.8071770  32.1391195  38.6051637  92.1513234  31.9090998
  32.7412185  87.2655348  32.4742640  32.4362321  87.5801498  33.3252784
  33.6942627  87.3436768  32.5169973  31.1858617  93.4245572  34.1235594
  30.6579979  92.6898331  33.8108832  30.6846120  94.2020248  33.8775563
  36.1651463  91.6194592  39.2402641  35.5075138  92.3093854  39.3282769
  36.9691862  92.0091024  39.5836627  34.9756922  89.9738965  37.2906582
  35.4888804  90.6068957  37.7928292  35.6258146  89.3740160  36.9249943
  26.2446932  86.1169699  30.5038091  25.4084244  86.4544386  30.8247366
  26.1051701  85.9818679  29.5665228  29.3311217  91.2425782  27.1270567
  28.4238279  91.0115035  27.3261716  29.8282249  90.4463401  27.3144549
  31.4537753  87.4488420  39.5364923  30.5360314  87.6703367  39.3786611
  31.8697896  87.5234731  38.6776630  32.2372801  88.8479836  34.6667603
  32.9844620  89.3601233  34.3574725  32.5064390  88.5263889  35.5271997
  30.5099451  91.3438377  31.6494558  29.6010670  91.0597410  31.7467027
  30.5394535  91.7637455  30.7897864  35.7418718  94.9544966  35.4185725
  35.2881045  94.1135876  35.4750916  35.1112685  95.5906365  35.7560505
  34.6851638  85.8836952  36.6486393  33.9474395  85.3714339  36.9796635
  34.9378411  85.4437334  35.8369669  34.1851657  96.7921463  36.3535543
  34.4774632  97.3526520  35.6347909  34.6950278  97.0850024  37.1088702
  21.0787621  89.0643891  35.6309760  20.8812021  88.4713252  34.9060826
  20.5234285  88.7596101  36.3485699  29.0584345  88.9566997  37.7504353
  29.1132955  88.0040834  37.6746829  28.2475547  89.1126436  38.2345651
  30.2075539  92.8847120  28.9882636  29.7694968  92.1682979  28.5288273
  30.9485979  93.1123235  28.4267728  26.9976705  87.5744057  35.5094732
  26.1844570  87.8738228  35.9159924  27.4935699  87.1799746  36.2269214
  29.1485283  97.5701814  37.4428996  29.1061461  97.7962660  36.5137528
  30.0647981  97.3365189  37.5914798  32.5950916  88.0385882  44.3409626
  32.9500304  88.2657355  45.2004091  33.2423048  88.3704258  43.7186881
  38.3248653  91.1604318  35.0458955  38.1866552  91.3505913  34.1180144
  37.9684872  91.9223700  35.5027006  38.3518033  93.2280845  40.0570226
  38.7854540  93.1356134  40.9053280  39.0649614  93.2038345  39.4190242
  27.2651083  94.4464843  37.2390959  28.0591682  93.9515163  37.0373534
  26.5542776  93.9182706  36.8758665  32.0845928  96.8282939  41.5903327
  32.1382950  97.3973875  42.3581043  31.2160709  96.9984824  41.2257364
  23.5733847  88.5907925  33.3150712  22.6431435  88.5292380  33.5320674
  23.6691319  88.0683878  32.5187353  23.4919396  85.1162738  35.9028954
  23.7526213  86.0308071  35.7938114  24.3136568  84.6487180  36.0525566
  39.2133583  93.2704545  42.5903112  39.4069473  94.1750356  42.8362387
  39.1134201  92.8111964  43.4241697  34.2748691  93.4211288  48.1643992
  34.1234198  93.1921840  47.2474076  34.2653371  94.3781889  48.1775337
  31.0434028  90.9943201  43.1490259  31.9726088  91.1454360  42.9759226
  30.6225058  91.0827221  42.2938905  29.8422359  95.0193865  40.9188796
  29.7033445  94.6512649  41.7914734  29.0536956  95.5341505  40.7472754
  31.3927575  94.3975468  38.3077634  31.0577407  94.3576238  39.2035284
  30.8931520  93.7320184  37.8348044  34.3286766  91.7431502  28.5814694
  33.7115937  91.0178330  28.4847746  33.8603255  92.5040862  28.2381768
  27.9954119  89.5163057  43.3213895  28.7053738  88.8756249  43.2800513
  27.9523427  89.7675952  44.2440076  35.9840898  96.4530410  46.2420474
  35.9253444  95.7689631  45.5751057  36.3860416  97.1949400  45.7901100
  26.1185312  85.9616926  27.7035998  25.2414778  85.8405727  27.3398245
  26.5943065  85.1703005  27.4514887  35.9858305  94.4169994  44.4734454
  35.0985084  94.0795916  44.5960853  36.5556856  93.6853026  44.7103219
  17.6387452  90.7494086  37.7977505  18.3258492  90.4355816  37.2098520
  17.4835581  91.6535451  37.5244757  40.4675646  89.8278212  39.2351015
  40.4565522  90.7102927  38.8644948  39.5993025  89.4749763  39.0405552
  31.9758142  98.9758281  43.5953856  32.6886114  99.6105746  43.5229757
  31.4848171  99.0722147  42.7793857  33.6975669  92.8809533  35.1671147
  32.7631948  93.0010996  34.9975852  33.8752337  91.9782000  34.9031157
  29.1980857  86.2655229  37.3204408  28.8278644  85.7126270  38.0085314
  29.6939949  85.6613363  36.7679409  37.0848220  88.7226853  35.7021181
  37.5508672  89.5554844  35.6281484  37.5355721  88.2571834  36.4066440
  27.0270056  96.7252724  44.4159426  27.7279515  97.3589207  44.5688821
  26.5565171  97.0667456  43.6555066  35.1524451  95.0670674  32.7007333
  35.4284295  94.9527269  33.6101208  34.2828950  94.6688159  32.6619507
  34.8271342  89.2797332  42.2411977  34.1742792  89.5273239  41.5864430
  35.2051721  88.4661470  41.9074454  31.7878515  99.3157025  36.3440147
  31.9700910  98.4978681  36.8067899  32.6111501  99.5324717  35.9065037
  32.1220681  98.2425210  33.6055196  32.6508447  97.7317665  32.9925358
  32.3848900  97.9267740  34.4700729  30.8758915  90.0217143  48.7278014
  30.1999552  89.9211272  49.3980389  31.6986548  89.8656356  49.1914011
  17.2155428  88.8294680  40.0694972  17.2539528  88.2958270  40.8632090
  16.7095721  88.3029885  39.4505949  34.4692572  96.1545328  48.8184284
  35.0132476  96.7675286  48.3239239  33.8879417  96.7124906  49.3351297
  20.8464006  87.5558782  33.1448904  21.1417447  86.6469460  33.0915957
  19.9452042  87.5346521  32.8229906  32.7550085  99.2766046  39.9499312
  32.6301224  98.4755786  39.4410258  33.4129176  99.7712239  39.4613282
  34.8184993  97.0775066  41.5778862  33.8715329  96.9580417  41.5057189
  35.1667766  96.1897564  41.6605124  22.5751848  85.2372879  33.2688229
  22.2464554  84.3570258  33.0863335  22.9291218  85.1820548  34.1564618
  31.8231426  96.8727782  37.7783214  31.6756389  95.9444489  37.9590784
  32.6484920  96.8947873  37.2940290  25.6893671  85.5245849  33.6363707
  26.0289743  86.0531770  32.9142315  26.1365791  85.8626255  34.4122273
  35.4265548  97.6956341  38.8648087  36.3512096  97.4899202  38.7272538
  35.2580852  97.4472742  39.7737429  27.6761818  84.0220471  31.8356999
  28.3970180  84.4001723  31.3320716  27.0527122  84.7409348  31.9391977
  31.8192941  84.7265620  32.7715332  32.0356555  85.6090258  32.4704160
  31.3387008  84.3351833  32.0420974  26.5592162  87.6851333  39.3486076
  26.4136743  87.9991636  40.2410358  26.0817366  88.3036233  38.7956975
  35.2160864  98.2142008  34.2210179  35.3897742  97.6488431  33.4684031
  35.7089756  99.0142903  34.0389669  21.0337824  90.2256677  42.2873737
  20.4891292  91.0016485  42.4194012  21.9117174  90.5727482  42.1292859
  27.8225441  83.5568261  34.6654536  27.9441352  82.6284907  34.8645423
  27.5327483  83.5706947  33.7532851  41.0700256  90.9778431  35.8400478
  41.5131402  90.2285756  35.4419602  40.1926766  90.9688568  35.4574210
  36.2036037  97.5308773  31.3207077  36.8986942  98.1515465  31.5394391
  36.5459187  96.6804124  31.5959455  38.1027460  94.9808478  32.8494408
  38.6278784  95.3195751  32.1243728  38.0149813  94.0455493  32.6657542
  27.2341993  96.5918471  39.2811962  26.6122002  95.9289176  38.9814190
  27.9046860  96.6179602  38.5985610  20.4669065  95.1578329  38.1703222
  19.6300973  94.7300503  37.9887224  20.4392710  95.3510772  39.1074014
  37.7921366  95.6141382  48.1545606  37.0016910  95.5965521  47.6150105
  37.5554721  96.1529675  48.9094642  37.9119241  92.4633848  45.4678334
  37.9617246  92.2983856  46.4093857  37.8033164  91.5961107  45.0776215
  26.7955500  95.1422394  32.7570423  26.9443620  95.8257858  32.1037096
  27.6021943  95.1227484  33.2719879  35.2023004  88.4464776  46.7837641
  36.1032866  88.3071241  46.4921639  35.2770978  88.6119231  47.7235818
  39.4137438  94.8830790  45.7120356  39.1222246  95.2460770  46.5483817
  38.8009569  94.1697798  45.5333688  40.6133120  92.4483669  38.2322926
  41.4480012  92.8873474  38.3960486  40.7492249  91.9722323  37.4131172
  37.6624626  90.0063404  44.1800414  38.1378748  90.1991051  43.3719265
  36.7390192  90.0622590  43.9343797  24.5508133  91.1687571  33.7631492
  24.3054175  90.2649901  33.9611702  24.7204047  91.1704722  32.8210970
  23.8203780  86.9015929  31.2617653  23.1273025  86.9760284  30.6057689
  23.5755532  86.1376273  31.7839170  30.2950905  97.6370524  30.2282170
  29.7224872  98.2560711  29.7752642  30.8683699  98.1869886  30.7622092
  36.3626295  86.8829164  42.4128719  37.3143718  86.9827262  42.4340943
  36.1929746  86.0907433  42.9226804  34.3840675  83.9684748  42.5988120
  33.7890607  84.2489760  41.9034609  34.0990371  84.4578649  43.3704861
  33.5148165  97.9207674  31.3590753  34.4478838  97.8553236  31.5623628
  33.4271378  98.7563941  30.9005285  36.1436182  97.2373545  28.3194700
  36.0649813  96.9033408  29.2130458  36.9645849  97.7295313  28.3186173
  38.8414373  90.1035284  41.5271019  38.8090693  89.1651285  41.7130703
  39.4514997  90.1819321  40.7936844  30.6797704  88.9731337  27.5698223
  31.6256809  88.8437545  27.6386641  30.3011949  88.2345999  28.0467651
  38.9908861  86.8946328  41.5729302  38.4747910  86.1104784  41.3859231
  39.8748810  86.5665044  41.7375822  44.6590923  91.1651291  40.6677056
  45.3894311  90.9036579  41.2284759  44.0497868  90.4280013  40.7079124
  42.7406220  89.3059154  41.2651507  42.0139384  89.1715118  40.6567998
  42.3253507  89.6135982  42.0708225  30.5636396  93.0249083  49.0298880
  31.4839406  93.2027682  49.2238926  30.5285979  92.0805129  48.8778579
  28.8640621  86.8981313  27.5053108  27.9572076  86.6014426  27.5815822
  29.1416602  86.6011132  26.6387394  19.7818561  88.2187677  37.9552155
  19.4621346  87.3652985  37.6626529  19.2351990  88.4336255  38.7110122
  23.5598469  90.9350118  41.6721661  23.7784479  91.8667226  41.6909695
  23.9724243  90.5758092  42.4576465  30.4802687  81.4418203  33.6597349
  29.6703415  81.0965288  34.0352596  31.1687104  81.1325747  34.2484961
  28.4326334  86.5083324  51.0624410  28.3323061  87.4577681  50.9936501
  28.2147876  86.1801563  50.1900480  27.6339406  83.7568249  27.6465087
  28.4958570  84.0823147  27.9060905  27.8189750  82.9699745  27.1338153
  19.6506821  91.8390588  39.9245276  18.9570293  91.4244541  39.4115231
  20.3979812  91.8811125  39.3278695  35.7872042  82.6296775  34.7900310
  35.2070711  83.2881579  34.4078363  35.5207975  81.8074120  34.3787728
  28.2957604  89.9380462  49.8789472  27.8124686  90.7380823  50.0853361
  28.3818543  89.9488407  48.9256916  21.5643564  91.7708842  37.8011291
  21.5414252  91.8696529  36.8493174  21.8744200  92.6173993  38.1228457
  24.2230942  93.8284997  41.9157905  25.1774195  93.7968939  41.8487837
  24.0243465  93.3675621  42.7308131  24.8130324  92.3986113  44.4828703
  25.6323213  92.8930192  44.5063540  25.0867132  91.4818081  44.4546271
  34.5696920  84.7896866  33.8456659  33.6822775  85.0746516  33.6276853
  34.9850909  84.6290629  32.9983936  37.9211456  84.8143386  37.5610998
  38.6971846  85.3039839  37.8335615  37.1959590  85.2401441  38.0182867
  40.3584015  85.5271006  38.6184938  40.9528506  85.2866742  37.9078247
  40.4310599  84.8078136  39.2458475  33.7140134  94.5541540  27.9404679
  34.4175984  94.7591543  28.5562334  32.9902782  95.1218302  28.2053762
  34.5437944  90.3051401  34.0606949  34.4873145  90.7619953  33.2214581
  35.0966286  89.5442086  33.8829792  38.3542750  86.0941133  34.8857068
  38.0979684  85.6937769  35.7165276  37.7295618  86.8084927  34.7607207
  42.6655088  88.8337207  37.3928360  42.1054646  88.9030396  38.1659922
  42.0598591  88.6578191  36.6727856  35.6226831  94.9924069  29.9903139
  36.4572435  94.5605268  29.8080613  35.4611174  94.8206083  30.9180033
  35.2772723  91.4956183  31.3559478  35.2221527  91.3300454  30.4147922
  34.6518778  92.2032216  31.5121668  32.5918630  93.8005095  50.6813041
  33.4609790  93.9745747  50.3199676  32.1125382  94.6199511  50.5588770
  28.5868849  80.9964292  30.9344796  28.5747518  81.9406132  31.0913067
  29.4792271  80.8134437  30.6404258  49.2060802 103.1720408  38.0644502
  49.9385974 102.6019624  38.2982331  48.4500157 102.7842008  38.5051008
  46.7286222  96.8841982  42.5239111  46.3969547  97.7537393  42.3000326
  46.1331835  96.5678266  43.2033141  40.4642408 100.6237549  30.2569193
  40.6316811 101.4917785  30.6239664  40.2739577 100.7864830  29.3330482
  46.6214885 101.6037068  39.6032461  45.7131763 101.5352476  39.3091222
  46.5702481 102.0809013  40.4314286  48.4876532  99.8053506  41.3810335
  47.8450912 100.0986039  40.7350129  47.9831460  99.6906427  42.1863531
  46.1416695 103.5516679  32.0696194  47.0534552 103.7844066  31.8943891
  45.6326343 104.1353724  31.5071272  43.9287978 100.5718282  44.7372217
  43.6848910 101.3260343  44.2006493  44.2047909 100.9503630  45.5719464
  43.4852670  99.7274715  40.3186055  42.6237149 100.0255969  40.6102792
  43.5115105  99.9445114  39.3867087  55.0878262 106.3367599  37.9356811
  54.3341971 105.7674997  37.7800816  55.2225803 106.3030263  38.8827446
  36.9644230  97.2872581  50.2725886  36.5711176  96.7338779  50.9473530
  37.7810370  97.5983159  50.6632403  39.8812191  98.7030460  47.8646142
  40.6221904  99.3037613  47.7850605  40.1130114  97.9608098  47.3064185
  43.8269354  94.7311563  42.1410424  43.4833623  95.6213205  42.0649535
  44.1948316  94.5413220  41.2780009  41.3766748  99.5669875  35.7068098
  40.5208344  99.1776725  35.5273736  41.7893699  99.6461836  34.8467883
  42.9065894  97.1016218  40.1059657  42.4030690  97.0646353  39.2927463
  43.1996501  98.0108961  40.1656314  39.1508780  97.1854948  39.1125839
  40.0161777  96.9897756  38.7531729  39.2186289  96.9565299  40.0395196
  43.5805940 102.5947266  32.4742640  43.2756075 102.9093415  33.3252784
  44.5336382 102.6728686  32.5169973  36.7571099  99.4157156  36.4842206
  37.3314851  99.1932337  35.7515399  37.3442082  99.4845850  37.2370807
  39.0593767  96.2898405  35.2117275  38.4058179  95.9747422  34.5873890
  39.0174241  95.6674145  35.9377098  45.5245392 101.2128870  36.6486393
  44.7868149 100.7006256  36.9796635  45.7772166 100.7729252  35.8369669
  45.6257020  93.9905122  37.2428162  45.9315896  93.1302485  36.9554077
  46.3509624  94.5822742  37.0427156  43.4344671 103.3677799  44.3409626
  43.7894059 103.5949272  45.2004091  44.0816802 103.6996176  43.7186881
  37.3284534 100.4754330  41.1255967  37.9683913 100.3343089  40.4278930
  36.4962065 100.1888844  40.7494569  41.7063648  98.4854353  45.0893439
  41.0591563  99.1844303  44.9957915  42.4764663  98.9190497  45.4569687
  43.4539643  99.4529764  37.5932724  43.9508342  98.6999726  37.2733794
  42.6826624  99.4894081  37.0275933  51.3069400 105.1570129  39.2351015
  51.2959276 106.0394845  38.8644948  50.4386780 104.8041680  39.0405552
  40.0374611 101.5947147  37.3204408  39.6672399 101.0418187  38.0085314
  40.5333704 100.9905280  36.7679409  47.9241975 104.0518770  35.7021181
  48.3902427 104.8846762  35.6281484  48.3749475 103.5863752  36.4066440
  45.8958638  96.4199357  39.7412083  44.9821717  96.6503584  39.9094290
  46.3251739  96.5037801  40.5926115  35.4339945  99.0051138  43.5657515
  35.4981272  99.8665969  43.1534912  35.3707065  98.3925139  42.8329873
  38.0178321  98.2961122  45.4017104  38.5412723  98.5423419  46.1643413
  37.7990654  99.1281157  44.9820241  39.2230866  99.2374818  43.0866775
  38.8827686  98.4382631  43.4887454  38.5169872  99.5376528  42.5143608
  39.8747338  96.3224130  41.5394098  40.6973407  95.8484608  41.4172988
  40.1185401  97.1014614  42.0392784  38.5155572  99.3512388  31.8356999
  39.2363935  99.7293641  31.3320716  37.8920876 100.0701265  31.9391977
  42.6586695 100.0557537  32.7715332  42.8750310 100.9382175  32.4704160
  42.1780762  99.6643751  32.0420974  39.2582299 100.0045799  39.3966966
  39.2443868  99.1086892  39.0599264  39.9754728 100.0116462  40.0305252
  41.1108430 100.4383139  41.4420093  40.8526208 101.3600209  41.4404424
  40.5793471 100.0413573  42.1320557  38.6619195  98.8860179  34.6654536
  38.7835107  97.9576825  34.8645423  38.3721238  98.8998865  33.7532851
  41.5310386  96.5715089  37.8021256  41.5532083  96.6354422  36.8473235
  41.9478445  95.7319598  37.9961762  51.9094010 106.3070349  35.8400478
  52.3525156 105.5577674  35.4419602  51.0320520 106.2980485  35.4574210
  38.1460275 100.3992176  48.8744468  38.1948430 101.2754299  48.4922238
  38.6882789  99.8569569  48.3016112  46.0416758 103.7756694  46.7837641
  46.9426621 103.6363159  46.4921639  46.1164733 103.9411149  47.7235818
  40.3759563 101.1523549  45.6290827  39.5062873 101.4457115  45.3573416
  40.6119044 101.7363994  46.3498091  43.0798597  97.3703166  43.1456248
  43.5980541  98.1064192  42.8202736  42.7253730  97.6767159  43.9803007
  43.3311191  93.7903448  38.6657144  43.6112945  93.1226637  39.2917571
  44.1161798  93.9832544  38.1531808  47.2020050 102.2121082  42.4128719
  48.1537473 102.3119180  42.4340943  47.0323500 101.4199351  42.9226804
  45.2234429  99.2976665  42.5988120  44.6284361  99.5781678  41.9034609
  44.9384126  99.7870566  43.3704861  49.6808127 105.4327202  41.5271019
  49.6484448 104.4943202  41.7130703  50.2908751 105.5111238  40.7936844
  49.8302616 102.2238245  41.5729302  49.3141665 101.4396702  41.3859231
  50.7142565 101.8956962  41.7375822  47.4913343  95.9679261  37.5325115
  47.2938164  95.6594349  38.4168447  48.1013048  96.6940900  37.6623045
  55.4984677 106.4943209  40.6677056  56.2288066 106.2328497  41.2284759
  54.8891623 105.7571931  40.7079124  53.5799974 104.6351071  41.2651507
  52.8533138 104.5007036  40.6567998  53.1647261 104.9427900  42.0708225
  39.7034376 102.2273231  27.5053108  38.7965831 101.9306344  27.5815822
  39.9810357 101.9303049  26.6387394  41.3196441  96.7710121  33.6597349
  40.5097170  96.4257206  34.0352596  42.0080858  96.4617665  34.2484961
  43.2486990  95.8488168  35.2821646  43.8018028  96.2683621  35.9411669
  43.4857076  94.9223916  35.3244602  38.4733160  99.0860166  27.6465087
  39.3352324  99.4115065  27.9060905  38.6583504  98.2991662  27.1338153
  46.6265797  97.9588693  34.7900310  46.0464466  98.6173497  34.4078363
  46.3601729  97.1366037  34.3787728  45.0769363  97.3593751  36.9921631
  45.5769141  97.4710285  36.1835950  45.7204971  97.0554803  37.6322439
  45.4090675 100.1188783  33.8456659  44.5216530 100.4038434  33.6276853
  45.8244664  99.9582547  32.9983936  48.7605211 100.1435304  37.5610998
  49.5365601 100.6331757  37.8335615  48.0353345 100.5693358  38.0182867
  51.1977769 100.8562923  38.6184938  51.7922260 100.6158659  37.9078247
  51.2704353 100.1370054  39.2458475  49.1936504 101.4233051  34.8857068
  48.9373439 101.0229687  35.7165276  48.5689372 102.1376845  34.7607207
  53.5048842 104.1629124  37.3928360  52.9448400 104.2322314  38.1659922
  52.8992346 103.9870109  36.6727856  39.4262603  96.3256209  30.9344796
  39.4141273  97.2698049  31.0913067  40.3186025  96.1426355  30.6404258
  43.2414723  92.9198986  35.1890733  42.4747118  92.3657473  35.3347415
  43.6525428  92.9920855  36.0504885  35.2456484  99.2083782  49.2795914
  36.1087945  98.8520587  49.4899239  34.6721894  98.8697677  49.9671319
   2.5251425  22.8051347  30.1394789   2.7368320  23.4483107  29.4629170
   2.4781173  21.9713663  29.6716719   3.6397253  25.6823302  28.3117147
   4.4614696  25.2803489  28.0299828   3.6359655  25.5791536  29.2633262
  11.7303246  22.0262051  24.6602118  10.9766954  21.4569449  24.5046122
  11.8650787  21.9924715  25.6072753   0.8451588  27.8001819  32.4938581
   0.8270063  28.6210700  32.0018850   1.7671508  27.6755894  32.7188722
   3.6470201  22.6380962  25.9647947   2.9893875  23.3280223  26.0528076
   4.4510600  23.0277394  26.3081934   5.8336771  24.2467214  26.7815533
   6.2673277  24.1542503  27.6298587   6.5468351  24.2224715  26.1435549
   6.6952320  24.2890915  29.3148418   6.8888210  25.1936725  29.5607693
   6.5952938  23.8298334  30.1487003   1.7567429  24.4397657  34.8889299
   1.6052935  24.2108209  33.9719383   1.7472108  25.3968259  34.9020644
   3.4659636  27.4716780  32.9665781   3.4072182  26.7876000  32.2996364
   3.8679154  28.2135770  32.5146407   3.4677043  25.4356364  31.1979760
   2.5803822  25.0982286  31.3206159   4.0375594  24.7039395  31.4348526
   7.9494383  20.8464581  25.9596322   7.9384260  21.7289297  25.5890255
   7.0811763  20.4936132  25.7650859   2.3090079  20.2983701  28.9657283
   1.6561530  20.5459609  28.3109736   2.6870459  19.4847839  28.6319761
   1.9511310  27.1731697  35.5429591   2.4951214  27.7861656  35.0484546
   1.3698154  27.7311276  36.0596604   2.3003731  28.0961435  28.3024169
   1.3534066  27.9766787  28.2302495   2.6486504  27.2083933  28.3850430
   2.9084286  28.7142710  25.5893394   3.8330833  28.5085572  25.4517845
   2.7399589  28.4659111  26.4982735   5.2740104  26.6327751  34.8790912
   4.4835648  26.6151890  34.3395412   5.0373458  27.1716045  35.6339949
   5.3937979  23.4820218  32.1923641   5.4435984  23.3170225  33.1339164
   5.2851902  22.6147477  31.8021522   2.6841741  19.4651146  33.5082947
   3.5851604  19.3257611  33.2166945   2.7589716  19.6305601  34.4481125
   6.8956176  25.9017159  32.4365662   6.6040984  26.2647140  33.2729123
   6.2828307  25.1884168  32.2578994   8.0951858  23.4670039  24.9568233
   8.9298749  23.9059843  25.1205793   8.2310987  22.9908692  24.1376478
   5.1443364  21.0249774  30.9045720   5.6197486  21.2177420  30.0964572
   4.2208929  21.0808960  30.6589104   3.8445033  17.9015534  29.1374026
   4.7962456  18.0013632  29.1586250   3.6748483  17.1093803  29.6472110
   6.3233111  21.1221654  28.2516326   6.2909431  20.1837654  28.4376009
   6.9333734  21.2005690  27.5182150   6.4727599  17.9132697  28.2974609
   5.9566648  17.1291154  28.1104538   7.3567548  17.5851414  28.4621128
  12.1409661  22.1837660  27.3922362  12.8713049  21.9222949  27.9530066
  11.5316606  21.4466382  27.4324430  10.2224958  20.3245523  27.9896814
   9.4958121  20.1901488  27.3813305   9.8072245  20.6322352  28.7953532
  11.7329844  36.5280090  26.8103622  12.3708254  36.4086837  26.1066962
  11.6150687  37.4760934  26.8691574   8.5419550  36.4807518  26.7465147
   8.2038062  36.3648583  25.8585682   9.4109318  36.0798683  26.7266153
   4.4006366  38.3342995  22.7362038   3.8371231  38.2432932  21.9678325
   4.2858761  37.5142899  23.2164530   9.0239333  37.6342370  32.7051352
   9.0127974  37.2395168  31.8331856   9.1859973  36.9008443  33.2985124
   1.9470798  39.8294186  25.5746258   2.7392090  39.4885011  25.1592557
   2.1867448  39.9389161  26.4948411   9.9805925  42.0013962  18.0476503
   9.3293904  42.5868043  17.6610516  10.7750287  42.5320157  18.1071540
   3.9061552  39.0903099  18.4463637   4.6792428  38.5432087  18.3076513
   4.2586951  39.9547349  18.6578098   5.7446594  40.4179482  31.6530536
   5.4536460  41.3225113  31.5377203   6.3803579  40.4596009  32.3674606
   6.6702801  37.7956330  28.2431896   7.2666373  37.5712353  27.5288859
   6.7277773  37.0541076  28.8457344  11.2871112  34.2531544  23.8856830
  12.0734202  33.8350967  23.5347247  11.5509817  35.1577636  24.0538478
  11.4581190  39.6904394  18.5845487  10.8227023  39.7639021  19.2966392
  11.1278596  40.2797993  17.9064566  16.6879540  34.1906777  24.7889809
  17.4204711  33.6205994  25.0227638  15.9318895  33.8028378  25.2296314
   5.9624118  37.1523872  18.2806462   5.8460376  36.4768775  18.9487546
   6.0726378  36.6656245  17.4638615   8.3055659  36.6134019  21.9853151
   7.9413866  36.0864640  22.6966073   9.1622775  36.2232488  21.8119636
  14.2104960  27.9028351  29.2484417  13.8788285  28.7723762  29.0245632
  13.6150573  27.5864635  29.9278448  10.7036479  40.1040897  28.6480330
  10.4037202  41.0065936  28.5396137  10.3587539  39.8373080  29.5001483
   4.1548961  36.5554694  24.6817034   3.2299457  36.4230908  24.8894726
   4.4033374  37.3348913  25.1786977  14.1033623  32.6223437  26.3277767
  13.1950501  32.5538846  26.0336528  14.0521219  33.0995382  27.1559593
   7.9250367  34.0981576  17.9661166   7.8049992  34.5438627  18.8046647
   7.2302955  34.4466893  17.4074705   1.5157772  36.1987968  25.5160823
   1.6450153  36.4522447  26.4300235   0.8355223  36.7915676  25.1965478
   5.6857259  46.8685218  21.6151298   5.6081289  47.8193043  21.6939778
   5.0818903  46.5231090  22.2726224   8.1774489  34.0413083  34.2712665
   7.4007823  34.6007003  34.2615529   8.8165052  34.5269866  34.7927535
  15.9695270  30.8239876  28.1055641  15.3269650  31.1172409  27.4595436
  15.4650198  30.7092796  28.9108838  13.6235433  34.5703049  18.7941500
  14.5353289  34.8030436  18.6189198  13.1145080  35.1540093  18.2316579
   6.4320861  36.8498536  33.8330632   7.1735546  37.3883580  33.5565455
   5.7257847  37.4764825  33.9902183  11.9076201  38.9927677  32.4302793
  12.3159557  38.5510087  31.6857425  11.1853462  38.4180304  32.6836986
   8.2607271  33.9300284  29.8036350   9.1068466  34.3539697  29.9470999
   8.2005909  33.2733908  30.4974913  12.2305016  39.5528867  26.1855082
  11.6013878  39.7174582  25.4831150  11.8430678  39.9670477  26.9566046
  16.1094247  40.4883305  23.5399446  15.4245286  40.8682207  22.9896479
  16.1938097  41.0978632  24.2731393  11.4106716  31.5904652  31.4617524
  11.1667648  32.3446712  30.9251799  11.6866647  31.9690000  32.2964771
  13.3645179  38.1343264  30.1394789  13.5762074  38.7775024  29.4629170
  13.3174927  37.3005581  29.6716719  10.9671408  30.7461085  27.0431361
  10.1055887  31.0442339  27.3348099  10.9933843  30.9631484  26.1112394
   7.7832977  39.2903276  23.4505167   8.2471323  39.5690979  22.6609789
   7.5189776  38.3886720  23.2678258   4.6757058  38.8374757  26.3884930
   5.2458416  39.2662025  25.7502415   5.2665170  38.5557342  27.0869116
   6.7201863  35.4126428  20.2594732   7.4225907  35.8647472  20.7268658
   6.3882492  34.7710247  20.8874625   5.1682225  34.0038185  34.6345942
   4.5380886  34.6854465  34.8681338   5.0618313  33.8921266  33.6899080
  14.4791007  41.0115220  28.3117147  15.3008451  40.6095407  28.0299828
  14.4753410  40.9083454  29.2633262   2.4141943  34.0354560  22.5195342
   1.6173106  34.1473254  23.0378838   2.1867535  34.3741212  21.6536233
   8.2447610  40.5599263  30.4677857   8.3092043  41.0219670  31.3036029
   7.5358534  39.9296628  30.5960167  22.5697000  37.3553968  24.6602118
  21.8160708  36.7861366  24.5046122  22.7044541  37.3216633  25.6072753
   7.9595628  42.2267371  20.3356837   7.8241303  43.0718906  20.7641685
   8.5005441  42.4286648  19.5722771   4.4462968  28.3058950  36.9971193
   4.0529913  27.7525149  37.6718837   5.2629108  28.6169529  37.3877710
   1.4125025  39.7442809  20.9084762   1.9249546  40.5386059  21.0590327
   2.0647738  39.0469099  20.8418364   3.2219910  42.8608565  22.9907516
   3.3986539  43.7826530  22.8028499   4.0176744  42.5466984  23.4201895
   7.3630929  29.7216829  34.5891449   8.1040642  30.3223983  34.5095912
   7.5948852  28.9794467  34.0309492   2.5072267  34.9073197  32.8669679
   2.3925782  34.0058454  33.1676778   1.6516784  35.1536893  32.5154495
   9.5864104  42.8490937  34.4657179   9.1427959  42.0627316  34.1478084
  10.2481318  43.0370088  33.8001070   4.3451226  44.3786739  28.9917858
   4.8958651  44.2503802  28.2194852   3.5062702  44.6781628  28.6412751
  11.6845343  43.1293737  32.4938581  11.6663818  43.9502618  32.0018850
  12.6065263  43.0047812  32.7188722   8.1418397  40.6437866  33.3362089
   8.6746733  39.8826155  33.1061397   7.6132478  40.3511518  34.0786244
  11.3088092  25.7497932  28.8655731  10.9652361  26.6399574  28.7894841
  11.6767054  25.5599590  28.0025316  11.2738374  35.7406543  17.3728166
  10.7584998  36.5111148  17.6116553  11.0015683  35.0671680  17.9961227
   8.8585485  30.5856244  22.4313404   8.0027082  30.1963095  22.2519043
   9.2712437  30.6648205  21.5713190  10.3884632  28.1202588  26.8304964
   9.8849428  28.0832723  26.0172769  10.6815239  29.0295330  26.8901621
   6.6327518  28.2041317  25.8371146   7.4980515  28.0084126  25.4777035
   6.7005027  27.9751669  26.7640503  16.2472649  38.4938898  19.3081339
  15.4702091  38.1550058  18.8636501  16.9264129  38.4991521  18.6336304
  11.0624678  33.6133636  19.1987947  10.7574813  33.9279785  20.0498090
  12.0155120  33.6915055  19.2415280   9.5071109  39.7723859  20.8480901
   8.9792471  39.0376618  20.5354139   9.0058612  40.5498535  20.6020869
  14.4863955  37.9672879  25.9647947  13.8287630  38.6572141  26.0528076
  15.2904355  38.3569311  26.3081934   4.2389837  30.4343525  23.2087513
   4.8133589  30.2118707  22.4760706   4.8260819  30.5032220  23.9616114
  13.2969414  36.3217252  24.0151889  13.8101296  36.9547244  24.5173599
  13.9470638  35.7218448  23.6495249  10.5591788  46.3001576  16.7712560
   9.8853487  46.6033273  17.3797518  10.9457610  47.1030657  16.4218017
   9.7750245  33.7966708  26.2610230   8.8572806  34.0181655  26.1031918
  10.1910389  33.8713018  25.4021937  10.5585293  35.1958123  21.3912910
  11.3057112  35.7079521  21.0820032  10.8276882  34.8742176  22.2517303
   8.8311943  37.6916664  18.3739864   7.9223162  37.4075697  18.4712334
   8.8607027  38.1115743  17.5143171  14.0631210  41.3023254  22.1431032
  13.6093538  40.4614163  22.1996222  13.4325177  41.9384652  22.4805812
  13.0064130  32.2315240  23.3731699  12.2686887  31.7192626  23.7041942
  13.2590904  31.7915621  22.5614976  12.5064150  43.1399750  23.0780850
  12.7987124  43.7004807  22.3593216  13.0162770  43.4328311  23.8334009
  13.1075757  25.0091492  23.9673468  13.4134634  24.1488855  23.6799384
  13.8328362  25.6009112  23.7672462   7.3796837  35.3045285  24.4749660
   7.4345447  34.3519121  24.3992136   6.5688039  35.4604724  24.9590958
   8.5288031  39.2325408  15.7127943   8.0907461  38.5161267  15.2533580
   9.2698472  39.4601523  15.1513034   5.3189197  33.9222344  22.2340038
   4.5057063  34.2216515  22.6405231   5.8148191  33.5278033  22.9514521
   7.4697775  43.9180101  24.1674303   7.4273954  44.1440948  23.2382835
   8.3860474  43.6843476  24.3160104  10.9163409  34.3864169  31.0654932
  11.2712796  34.6135642  31.9249398  11.5635540  34.7182546  30.4432188
  16.6461146  37.5082605  21.7704261  16.5079044  37.6984201  20.8425451
  16.2897364  38.2701988  22.2272312   4.8103272  31.4940700  27.8501273
   5.4502651  31.3529459  27.1524237   3.9780802  31.2075213  27.4739875
  16.6730525  39.5759132  26.7815533  17.1067032  39.4834421  27.6298587
  17.3862106  39.5516632  26.1435549   5.5863576  40.7943130  23.9636266
   6.3804174  40.2993450  23.7618841   4.8755268  40.2660993  23.6003971
  10.4058420  43.1761226  28.3148633  10.4595442  43.7452162  29.0826349
   9.5373201  43.3463111  27.9502671   1.8131888  31.4641025  22.6274260
   2.0738705  32.3786358  22.5183421   2.6349060  30.9965467  22.7770873
   3.2856813  32.8778782  29.7973085   3.9579867  32.6696144  29.1485734
   2.4586600  32.6800868  29.3578317  17.5346075  39.6182832  29.3148418
  17.7281965  40.5228643  29.5607693  17.4346693  39.1590251  30.1487003
   9.1882386  29.5040723  31.8138746   8.5410301  30.2030673  31.7203222
   9.9583401  29.9376867  32.1814994  12.5961183  39.7689575  34.8889299
  12.4446690  39.5400127  33.9719383  12.5865863  40.7260177  34.9020644
   9.3646520  37.3421488  29.8735565  10.2938580  37.4932648  29.7004533
   8.9437550  37.4305509  29.0184212   8.1634852  41.3672152  27.6434103
   8.0245937  40.9990937  28.5160041   7.3749448  41.8819792  27.4718061
   8.7583004  46.4681249  18.9859639   8.9334759  45.9969292  19.8005262
   8.0715792  47.0947015  19.2140900   9.7140067  40.7453755  25.0322941
   9.3789899  40.7054525  25.9280591   9.2144012  40.0798471  24.5593351
   3.6884311  36.1521385  30.5575522   3.5504109  35.4201624  31.1587061
   4.5989234  36.0630285  30.2759710  12.6499258  38.0909789  15.3060000
  12.0328429  37.3656618  15.2093053  12.1815747  38.8519150  14.9627075
   6.3166611  35.8641344  30.0459202   7.0266230  35.2234537  30.0045820
   6.2735920  36.1154239  30.9685382  14.3053390  42.8008698  32.9665781
  14.2465936  42.1167918  32.2996364  14.7072908  43.5427688  32.5146407
   5.0295545  32.8506562  31.8654841   4.4932902  32.3997301  32.5176437
   4.4412254  32.9852471  31.1225305   3.3244089  49.6170612  25.7599500
   3.5640687  50.2489136  26.4378518   2.4813285  49.2658652  26.0464859
  14.3070797  40.7648282  31.1979760  13.4197576  40.4274203  31.3206159
  14.8769348  40.0331313  31.4348526   7.8371951  45.4249734  28.1641004
   7.7642122  46.2304705  28.6760308   7.3949344  45.6241700  27.3389025
   7.6261730  44.6621504  21.6743825   6.8429252  45.2043184  21.7682050
   8.3254476  45.1795484  22.0738066  10.9358380  30.4716133  24.3178031
  11.4327080  29.7186096  23.9979101  10.1645362  30.5080450  23.7521240
  18.7888138  36.1756499  25.9596322  18.7778014  37.0581214  25.5890255
  17.9205517  35.8228050  25.7650859  10.2970634  45.3236568  30.3199162
  11.0098606  45.9584033  30.2475064   9.8060663  45.4200434  29.5039164
  12.0188161  39.2287821  21.8916454  11.0844440  39.3489283  21.7221158
  12.1964830  38.3260287  21.6276464   7.5193349  32.6133516  24.0449715
   7.1491137  32.0604557  24.7330621   8.0152442  32.0091650  23.4924715
  15.4060713  35.0705140  22.4266488  15.8721165  35.9033132  22.3526791
  15.8568213  34.6050122  23.1311747   5.3482548  43.0731011  31.1404733
   6.0492007  43.7067494  31.2934127   4.8777663  43.4145743  30.3800372
  13.4736944  41.4148961  19.4252640  13.7496788  41.3005556  20.3346514
  12.6041442  41.0166446  19.3864813  13.3777375  27.4385727  26.4657389
  12.4640455  27.6689954  26.6339596  13.8070477  27.5224171  27.3171422
  13.1483834  35.6275619  28.9657283  12.4955284  35.8751526  28.3109736
  13.5264214  34.8139757  28.6319761  10.1091008  45.6635312  23.0685454
  10.2913402  44.8456968  23.5313206  10.9323994  45.8803004  22.6310344
  10.4433173  44.5903497  20.3300502  10.9720940  44.0795952  19.7170664
  10.7061393  44.2746027  21.1946035   9.1971407  36.3695430  35.4523321
   8.5212044  36.2689559  36.1225696  10.0199041  36.2134644  35.9159318
   0.9450266  42.6067367  28.0735836   1.5303703  41.8611054  28.2063740
   0.7475104  42.9171323  28.9572500   3.7988921  45.6418614  23.0898278
   3.1299296  46.1264742  22.6062318   3.6601791  45.8887834  24.0041657
   7.9394190  47.6762357  29.6880937   8.4912498  47.8393979  30.4530022
   8.2800383  48.2666795  29.0160961   2.9158683  30.0237507  30.2902821
   2.9800009  30.8852338  29.8780219   2.8525803  29.4111509  29.5575180
   2.3910955  32.0960640  33.9375855   3.0182994  31.7137717  34.5513380
   1.5338874  31.8774842  34.3031548  12.7905064  42.5023615  35.5429591
  13.3344968  43.1153573  35.0484546  12.2091909  43.0603193  36.0596604
  11.0762577  45.6244333  26.6744619  10.9513716  44.8234073  26.1655564
  11.7341668  46.1190526  26.1858589   2.6970745  31.9793065  25.8521759
   1.9757331  32.5929033  25.7129232   3.4864001  32.5150830  25.7738405
  13.1397485  43.4253353  28.3024169  12.1927821  43.3058704  28.2302495
  13.4880258  42.5375851  28.3850430   5.4997059  29.3147492  32.1262411
   6.0231461  29.5609789  32.8888720   5.2809392  30.1467527  31.7065548
  10.1443919  43.2206069  24.5028521   9.9968881  42.2922777  24.6836091
  10.9697412  43.2426160  24.0185596   4.0106163  31.8724136  20.3609013
   4.3502235  32.4010058  19.6387621   4.4578283  32.2104542  21.1367580
  13.7478040  44.0434628  25.5893394  14.6724588  43.8377489  25.4517845
  13.5793344  43.7951029  26.4982735   6.7049604  30.2561187  29.8112081
   6.3646424  29.4569000  30.2132761   5.9988610  30.5562898  29.2388914
   7.3566076  27.3410499  28.2639404   8.1792145  26.8670978  28.1418295
   7.6004139  28.1200983  28.7638090  10.1405433  31.0743907  19.4960638
  10.3569047  31.9568545  19.1949466   9.6599500  30.6830120  18.7666280
   4.8804654  34.0329620  26.0731383   4.7349235  34.3469923  26.9655664
   4.4029858  34.6514520  25.5202281   6.7401037  31.0232168  26.1212272
   6.7262606  30.1273261  25.7844570   7.4573465  31.0302832  26.7550558
   8.5927168  31.4569508  28.1665400   8.3344946  32.3786579  28.1649730
   8.0612208  31.0599943  28.8565864  13.5373357  44.5620295  20.9455485
  13.7110234  43.9966718  20.1929338  14.0302248  45.3621190  20.7634975
   6.1437933  29.9046548  21.3899843   6.2653844  28.9763195  21.5890730
   5.8539976  29.9185234  20.4778158   9.0129124  27.5901459  24.5266562
   9.0350820  27.6540792  23.5718542   9.4297183  26.7505967  24.7207069
  19.3912748  37.3256718  22.5645785  19.8343894  36.5764044  22.1664908
  18.5139258  37.3166855  22.1819517  14.5248529  43.8787060  18.0452383
  15.2199434  44.4993753  18.2639698  14.8671679  43.0282411  18.3204761
  16.4239952  41.3286765  19.5739714  16.9491276  41.6674038  18.8489034
  16.3362305  40.3933781  19.3902849   8.0860001  45.2420839  31.7029591
   8.3947127  44.9969986  32.5752290   8.8835483  45.4467478  31.2148461
   8.1080613  47.3958749  23.9334967   7.6685603  46.9035127  24.6267824
   8.8588730  46.8531716  23.6927043   5.5554485  42.9396758  26.0057269
   4.9334494  42.2767463  25.7059497   6.2259352  42.9657890  25.3230917
   5.6279013  31.4178546  35.5989775   5.6767168  32.2940669  35.2167545
   6.1701527  30.8755939  35.0261418  16.1133858  41.9619669  34.8790912
  15.3229402  41.9443808  34.3395412  15.8767213  42.5007963  35.6339949
  16.2331733  38.8112135  32.1923641  16.2829738  38.6462143  33.1339164
  16.1245657  37.9439394  31.8021522   5.1167992  41.4900681  19.4815730
   5.2656112  42.1736145  18.8282402   5.9234436  41.4705771  19.9965185
  13.5235496  34.7943063  33.5082947  14.4245359  34.6549528  33.2166945
  13.5983470  34.9597518  34.4481125   7.8578301  32.1709918  32.3536134
   6.9881611  32.4643484  32.0818722   8.0937782  32.7550363  33.0743397
  17.7349930  41.2309077  32.4365662  17.4434739  41.5939057  33.2729123
  17.1222062  40.5176085  32.2578994  18.9345613  38.7961957  24.9568233
  19.7692504  39.2351761  25.1205793  19.0704741  38.3200610  24.1376478
  15.9837118  36.3541692  30.9045720  16.4591240  36.5469338  30.0964572
  15.0602684  36.4100877  30.6589104   2.8720625  37.5165859  20.4876799
   2.6266667  36.6128189  20.6857009   3.0416540  37.5183009  19.5456277
  10.5617335  28.3889535  29.8701554  11.0799279  29.1250562  29.5448043
  10.2072468  28.6953528  30.7048313  10.8129929  24.8089818  25.3902451
  11.0931683  24.1413007  26.0162877  11.5980536  25.0018913  24.8777115
   8.6163398  43.9848812  16.9527477   8.0437365  44.6038999  16.4997949
   9.1896191  44.5348173  17.4867399  14.6838787  33.2307452  29.1374026
  15.6356210  33.3305549  29.1586250  14.5142238  32.4385720  29.6472110
  12.7053167  30.3163035  29.3233427  12.1103099  30.5968048  28.6279915
  12.4202864  30.8056936  30.0950168  11.8360657  44.2685962  18.0836059
  12.7691331  44.2031523  18.2868935  11.7483870  45.1042229  17.6250592
  14.4648674  43.5851832  15.0440007  14.3862306  43.2511696  15.9375765
  15.2858341  44.0773600  15.0431479  17.1626865  36.4513571  28.2516326
  17.1303185  35.5129572  28.4376009  17.7727489  36.5297608  27.5182150
  17.3121354  33.2424615  28.2974609  16.7960402  32.4583071  28.1104538
  18.1961302  32.9143331  28.4621128  14.9732081  26.9865630  24.2570421
  14.7756902  26.6780719  25.1413753  15.5831786  27.7127269  24.3868351
  22.9803415  37.5129578  27.3922362  23.7106804  37.2514866  27.9530066
  22.3710361  36.7758300  27.4324430  21.0618712  35.6537441  27.9896814
  20.3351876  35.5193406  27.3813305  20.6465999  35.9614269  28.7953532
   8.8848889  39.3727370  35.7544187   9.8051898  39.5505969  35.9484233
   8.8498472  38.4283416  35.6023886   1.8810961  37.2828405  28.3966968
   2.0996971  38.2145513  28.4155002   2.2936735  36.9236379  29.1821772
  10.7305727  26.8674537  22.0066953  11.2836766  27.2869991  22.6656976
  10.9675814  25.9410285  22.0489909   6.7538827  32.8561611  37.7869717
   6.6535553  33.8055968  37.7181808   6.5360369  32.5279850  36.9145787
  14.1084534  28.9775062  21.5145617  13.5283203  29.6359866  21.1323669
  13.8420467  28.1552407  21.1033034  12.5588101  28.3780120  23.7166937
  13.0587879  28.4896655  22.9081256  13.2023709  28.0741173  24.3567746
   6.6170097  36.2858750  36.6034778   6.1337178  37.0859110  36.8098667
   6.7031036  36.2966695  35.6502222   2.5443434  40.1763284  28.6403212
   3.4986688  40.1447227  28.5733144   2.3455958  39.7153908  29.4553438
   3.1342816  38.7464400  31.2074010   3.9535705  39.2408479  31.2308847
   3.4079624  37.8296369  31.1791577  12.8909412  31.1375153  20.5701965
  12.0035267  31.4224803  20.3522160  13.3063401  30.9768916  19.7229242
  16.2423949  31.1621674  24.2856304  17.0184339  31.6518126  24.5580921
  15.5172083  31.5879728  24.7428174  18.6796507  31.8749293  25.3430245
  19.2740998  31.6345029  24.6323553  18.7523091  31.1556424  25.9703781
  12.0352626  40.9019827  14.6649985  12.7388476  41.1069830  15.2807641
  11.3115275  41.4696589  14.9299069  12.8650436  36.6529689  20.7852255
  12.8085638  37.1098240  19.9459888  13.4178779  35.8920373  20.6075098
  16.6755242  32.4419421  21.6102375  16.4192176  32.0416056  22.4410583
  16.0508110  33.1563214  21.4852514  20.9867580  35.1815494  24.1173666
  20.4267138  35.2508683  24.8905228  20.3811083  35.0056478  23.3973163
   4.0562789  46.6152221  25.8691853   3.9395173  47.5597653  25.7670543
   3.2355235  46.3125782  26.2577652  13.9439323  41.3402357  16.7148445
  14.7784927  40.9083555  16.5325920  13.7823666  41.1684370  17.6425340
  13.5985215  37.8434470  18.0804785  13.5434019  37.6778741  17.1393229
  12.9731271  38.5510503  18.2366974  10.9131123  40.1483382  37.4058347
  11.7822282  40.3224034  37.0444982  10.4337874  40.9677799  37.2834077
   5.0817303  47.2680483  29.0847781   5.9844550  47.3004093  29.4014276
   4.8554673  46.3380934  29.0994117   6.8370905  46.0211469  25.7457860
   5.8866536  46.0213331  25.6322232   7.1403391  45.2744204  25.2293894
   2.7275221  30.2270151  36.0041221   3.5906683  29.8706956  36.2144546
   2.1540632  29.8884046  36.6916625  22.5723598  51.8572008  26.8103622
  23.2102008  51.7378755  26.1066962  22.4544441  52.8052852  26.8691574
  19.3813305  51.8099436  26.7465147  19.0431816  51.6940501  25.8585682
  20.2503073  51.4090601  26.7266153  15.2400120  53.6634912  22.7362038
  14.6764985  53.5724849  21.9678325  15.1252515  52.8434817  23.2164530
  19.8633088  52.9634288  32.7051352  19.8521728  52.5687086  31.8331856
  20.0253727  52.2300360  33.2985124  12.7864552  55.1586104  25.5746258
  13.5785844  54.8176928  25.1592557  13.0261202  55.2681079  26.4948411
  20.8199679  57.3305880  18.0476503  20.1687659  57.9159960  17.6610516
  21.6144042  57.8612075  18.1071540  14.7455306  54.4195017  18.4463637
  15.5186182  53.8724004  18.3076513  15.0980705  55.2839266  18.6578098
  16.5840349  55.7471399  31.6530536  16.2930215  56.6517030  31.5377203
  17.2197333  55.7887927  32.3674606  17.5096556  53.1248248  28.2431896
  18.1060128  52.9004270  27.5288859  17.5671527  52.3832993  28.8457344
  17.0821584  50.5787683  16.0782087  17.3347105  50.0569204  15.3165550
  16.1446143  50.4153829  16.1808770  22.1264867  49.5823462  23.8856830
  22.9127956  49.1642885  23.5347247  22.3903571  50.4869554  24.0538478
  22.2974944  55.0196312  18.5845487  21.6620777  55.0930938  19.2966392
  21.9672351  55.6089911  17.9064566  27.5273294  49.5198695  24.7889809
  28.2598466  48.9497912  25.0227638  26.7712650  49.1320295  25.2296314
  16.8017873  52.4815789  18.2806462  16.6854131  51.8060693  18.9487546
  16.9120133  51.9948163  17.4638615  19.1449414  51.9425936  21.9853151
  18.7807621  51.4156557  22.6966073  20.0016530  51.5524405  21.8119636
  25.0498714  43.2320269  29.2484417  24.7182039  44.1015680  29.0245632
  24.4544328  42.9156553  29.9278448  18.7854901  46.9715836  16.9814500
  18.9529303  47.8396072  17.3484971  18.5952070  47.1343118  16.0575789
  21.5430234  55.4332815  28.6480330  21.2430957  56.3357854  28.5396137
  21.1981293  55.1664998  29.5001483  14.9942715  51.8846612  24.6817034
  14.0693212  51.7522826  24.8894726  15.2427129  52.6640831  25.1786977
  24.9427378  47.9515355  26.3277767  24.0344255  47.8830764  26.0336528
  24.8914973  48.4287300  27.1559593  18.7644122  49.4273493  17.9661166
  18.6443747  49.8730544  18.8046647  18.0696710  49.7758811  17.4074705
  12.3551526  51.5279885  25.5160823  12.4843908  51.7814364  26.4300235
  11.6748978  52.1207593  25.1965478  16.5251014  62.1977135  21.6151298
  16.4475043  63.1484960  21.6939778  15.9212657  61.8523008  22.2726224
  19.0168243  49.3705001  34.2712665  18.2401578  49.9298921  34.2615529
  19.6558807  49.8561784  34.7927535  26.8089024  46.1531793  28.1055641
  26.1663404  46.4464327  27.4595436  26.3043953  46.0384714  28.9108838
  24.4629188  49.8994967  18.7941500  25.3747044  50.1322353  18.6189198
  23.9538835  50.4832011  18.2316579  17.2714616  52.1790454  33.8330632
  18.0129300  52.7175498  33.5565455  16.5651601  52.8056743  33.9902183
  22.7469955  54.3219594  32.4302793  23.1553311  53.8802005  31.6857425
  22.0247217  53.7472222  32.6836986  19.1001025  49.2592201  29.8036350
  19.9462221  49.6831615  29.9470999  19.0399663  48.6025826  30.4974913
  23.0698770  54.8820785  26.1855082  22.4407632  55.0466499  25.4831150
  22.6824432  55.2962395  26.9566046  26.9488002  55.8175223  23.5399446
  26.2639040  56.1974124  22.9896479  27.0331851  56.4270550  24.2731393
  22.2500471  46.9196570  31.4617524  22.0061403  47.6738630  30.9251799
  22.5260401  47.2981917  32.2964771  24.2038934  53.4635182  30.1394789
  24.4155829  54.1066942  29.4629170  24.1568682  52.6297499  29.6716719
  21.8065162  46.0753003  27.0431361  20.9449642  46.3734256  27.3348099
  21.8327597  46.2923402  26.1112394  18.6226732  54.6195193  23.4505167
  19.0865077  54.8982896  22.6609789  18.3583530  53.7178638  23.2678258
  15.5150813  54.1666675  26.3884930  16.0852170  54.5953943  25.7502415
  16.1058925  53.8849259  27.0869116  17.5595618  50.7418346  20.2594732
  18.2619661  51.1939389  20.7268658  17.2276246  50.1002164  20.8874625
  16.0075979  49.3330102  34.6345942  15.3774640  50.0146383  34.8681338
  15.9012067  49.2213184  33.6899080  11.3020952  49.0001898  25.5611866
  10.5120006  49.2559427  25.0851976  11.7932199  49.8150236  25.6663906
  25.3184761  56.3407137  28.3117147  26.1402205  55.9387325  28.0299828
  25.3147164  56.2375372  29.2633262  13.2535697  49.3646477  22.5195342
  12.4566861  49.4765172  23.0378838  13.0261290  49.7033130  21.6536233
  19.0841365  55.8891181  30.4677857  19.1485797  56.3511588  31.3036029
  18.3752289  55.2588546  30.5960167   9.5858655  49.2532389  27.9926856
   9.8366693  50.1379399  28.2584432  10.1218203  49.0736990  27.2201948
  33.4090755  52.6845886  24.6602118  32.6554463  52.1153284  24.5046122
  33.5438296  52.6508550  25.6072753  18.7989383  57.5559288  20.3356837
  18.6635057  58.4010824  20.7641685  19.3399195  57.7578566  19.5722771
  15.2856722  43.6350868  36.9971193  14.8923668  43.0817067  37.6718837
  16.1022863  43.9461447  37.3877710  12.2518780  55.0734726  20.9084762
  12.7643301  55.8677976  21.0590327  12.9041493  54.3761017  20.8418364
  14.0613665  58.1900483  22.9907516  14.2380293  59.1118447  22.8028499
  14.8570498  57.8758902  23.4201895  18.2024683  45.0508747  34.5891449
  18.9434397  45.6515900  34.5095912  18.4342606  44.3086385  34.0309492
  13.3466021  50.2365114  32.8669679  13.2319536  49.3350372  33.1676778
  12.4910539  50.4828811  32.5154495  20.4257859  58.1782855  34.4657179
  19.9821713  57.3919233  34.1478084  21.0875073  58.3662005  33.8001070
  15.1844980  59.7078656  28.9917858  15.7352405  59.5795720  28.2194852
  14.3456456  60.0073545  28.6412751  22.5239097  58.4585655  32.4938581
  22.5057572  59.2794536  32.0018850  23.4459017  58.3339730  32.7188722
  18.9812151  55.9729784  33.3362089  19.5140488  55.2118072  33.1061397
  18.4526232  55.6803436  34.0786244  22.1481846  41.0789850  28.8655731
  21.8046116  41.9691492  28.7894841  22.5160809  40.8891508  28.0025316
  10.2167697  53.4023381  21.6844333  11.0542919  53.8120389  21.4678041
  10.3945964  52.4622823  21.6544527  22.1132129  51.0698461  17.3728166
  21.5978752  51.8403066  17.6116553  21.8409437  50.3963597  17.9961227
  19.6979240  45.9148162  22.4313404  18.8420836  45.5255012  22.2519043
  20.1106192  45.9940123  21.5713190  21.2278387  43.4494505  26.8304964
  20.7243182  43.4124640  26.0172769  21.5208993  44.3587248  26.8901621
  17.4721272  43.5333235  25.8371146  18.3374269  43.3376044  25.4777035
  17.5398781  43.3043587  26.7640503  27.0866403  53.8230816  19.3081339
  26.3095846  53.4841975  18.8636501  27.7657884  53.8283439  18.6336304
  21.9018432  48.9425553  19.1987947  21.5968568  49.2571702  20.0498090
  22.8548874  49.0206973  19.2415280  20.3464864  55.1015777  20.8480901
  19.8186225  54.3668536  20.5354139  19.8452367  55.8790453  20.6020869
  25.3257710  53.2964797  25.9647947  24.6681384  53.9864058  26.0528076
  26.1298109  53.6861229  26.3081934  15.0783592  45.7635443  23.2087513
  15.6527343  45.5410624  22.4760706  15.6654574  45.8324137  23.9616114
  24.1363169  51.6509170  24.0151889  24.6495050  52.2839162  24.5173599
  24.7864393  51.0510365  23.6495249  15.4053179  47.7939904  17.2283398
  14.5690491  48.1314590  17.5492673  15.2657948  47.6588884  16.2910535
  17.3806259  42.6376692  21.9362582  16.7270672  42.3225709  21.3119197
  17.3386733  42.0152432  22.6622405  18.4917464  52.9195987  13.8515874
  17.5844526  52.6885240  14.0507023  18.9888496  52.1233606  14.0389856
  21.3985543  61.6293494  16.7712560  20.7247242  61.9325191  17.3797518
  21.7851365  62.4322574  16.4218017  20.6144000  49.1258625  26.2610230
  19.6966561  49.3473572  26.1031918  21.0304143  49.2004936  25.4021937
  21.3979047  50.5250041  21.3912910  22.1450866  51.0371438  21.0820032
  21.6670637  50.2034094  22.2517303  19.6705698  53.0208582  18.3739864
  18.7616917  52.7367615  18.4712334  19.7000781  53.4407660  17.5143171
  24.9024965  56.6315171  22.1431032  24.4487292  55.7906081  22.1996222
  24.2718932  57.2676570  22.4805812  23.8457884  47.5607157  23.3731699
  23.1080641  47.0484543  23.7041942  24.0984658  47.1207539  22.5614976
  23.3457904  58.4691668  23.0780850  23.6380879  59.0296725  22.3593216
  23.8556525  58.7620229  23.8334009  23.9469512  40.3383409  23.9673468
  24.2528389  39.4780773  23.6799384  24.6722117  40.9301029  23.7672462
  10.2393868  50.7414096  22.3555066  10.0418268  50.1483457  21.6306133
   9.6840532  50.4366306  23.0731005  18.2190592  50.6337202  24.4749660
  18.2739201  49.6811039  24.3992136  17.4081794  50.7896641  24.9590958
  19.3681785  54.5617325  15.7127943  18.9301215  53.8453184  15.2533580
  20.1092226  54.7893440  15.1513034  16.1582951  49.2514262  22.2340038
  15.3450817  49.5508433  22.6405231  16.6541946  48.8569951  22.9514521
  18.3091529  59.2472019  24.1674303  18.2667708  59.4732865  23.2382835
  19.2254228  59.0135394  24.3160104  21.7557163  49.7156087  31.0654932
  22.1106551  49.9427560  31.9249398  22.4029294  50.0474463  30.4432188
  27.4854900  52.8374522  21.7704261  27.3472799  53.0276118  20.8425451
  27.1291119  53.5993905  22.2272312  15.6497026  46.8232618  27.8501273
  16.2896406  46.6821377  27.1524237  14.8174557  46.5367131  27.4739875
  27.5124280  54.9051049  26.7815533  27.9460786  54.8126339  27.6298587
  28.2255860  54.8808550  26.1435549  16.4257330  56.1235048  23.9636266
  17.2197929  55.6285368  23.7618841  15.7149023  55.5952911  23.6003971
  21.2452175  58.5053144  28.3148633  21.2989197  59.0744080  29.0826349
  20.3766956  58.6755029  27.9502671  12.7340094  50.2678130  20.0396019
  11.8037682  50.2062585  20.2565981  12.8297566  49.7454083  19.2432660
  12.6525643  46.7932943  22.6274260  12.9132460  47.7078276  22.5183421
  13.4742815  46.3257385  22.7770873  14.1250568  48.2070700  29.7973085
  14.7973621  47.9988062  29.1485734  13.2980355  48.0092786  29.3578317
  28.3739829  54.9474750  29.3148418  28.5675719  55.8520561  29.5607693
  28.2740447  54.4882169  30.1487003  20.0276140  44.8332641  31.8138746
  19.3804055  45.5322590  31.7203222  20.7977155  45.2668785  32.1814994
  23.4354938  55.0981493  34.8889299  23.2840444  54.8692045  33.9719383
  23.4259617  56.0552094  34.9020644  20.2040274  52.6713406  29.8735565
  21.1332334  52.8224565  29.7004533  19.7831304  52.7597426  29.0184212
  19.0028606  56.6964070  27.6434103  18.8639692  56.3282854  28.5160041
  18.2143202  57.2111709  27.4718061  19.5976758  61.7973166  18.9859639
  19.7728514  61.3261210  19.8005262  18.9109546  62.4238933  19.2140900
  20.5533821  56.0745673  25.0322941  20.2183654  56.0346443  25.9280591
  20.0537767  55.4090389  24.5593351  14.5278065  51.4813303  30.5575522
  14.3897863  50.7493542  31.1587061  15.4382989  51.3922203  30.2759710
  23.4893013  53.4201707  15.3060000  22.8722184  52.6948535  15.2093053
  23.0209501  54.1811067  14.9627075  17.1560366  51.1933262  30.0459202
  17.8659984  50.5526454  30.0045820  17.1129674  51.4446157  30.9685382
  25.1447145  58.1300615  32.9665781  25.0859691  57.4459836  32.2996364
  25.5466663  58.8719605  32.5146407  15.8689300  48.1798480  31.8654841
  15.3326657  47.7289218  32.5176437  15.2806008  48.3144389  31.1225305
  14.1637843  64.9462529  25.7599500  14.4034442  65.5781053  26.4378518
  13.3207040  64.5950569  26.0464859  15.2791559  47.6387131  14.4281305
  14.4021025  47.5175932  14.0643551  15.7549312  46.8473210  14.1760193
  25.1464552  56.0940199  31.1979760  24.2591331  55.7566121  31.3206159
  25.7163103  55.3623231  31.4348526   6.7993699  52.4264291  24.5222812
   7.4864739  52.1126021  23.9343827   6.6441828  53.3305656  24.2490063
  11.6028421  47.3154488  28.9507835  11.5186610  46.7080157  28.2158245
  10.7811128  47.8063506  28.9517332  18.6765705  60.7541652  28.1641004
  18.6035877  61.5596623  28.6760308  18.2343098  60.9533617  27.3389025
  18.4655485  59.9913422  21.6743825  17.6823007  60.5335102  21.7682050
  19.1648230  60.5087401  22.0738066  21.7752135  45.8008051  24.3178031
  22.2720835  45.0478013  23.9979101  21.0039116  45.8372368  23.7521240
  29.6281892  51.5048417  25.9596322  29.6171769  52.3873132  25.5890255
  28.7599272  51.1519968  25.7650859  21.1364389  60.6528486  30.3199162
  21.8492361  61.2875951  30.2475064  20.6454417  60.7492352  29.5039164
  22.8581916  54.5579738  21.8916454  21.9238194  54.6781201  21.7221158
  23.0358584  53.6552205  21.6276464  18.3587104  47.9425434  24.0449715
  17.9884891  47.3896475  24.7330621  18.8546196  47.3383568  23.4924715
  26.2454467  50.3997058  22.4266488  26.7114919  51.2325049  22.3526791
  26.6961968  49.9342039  23.1311747  16.1876302  58.4022929  31.1404733
  16.8885762  59.0359412  31.2934127  15.7171417  58.7437661  30.3800372
  24.3130698  56.7440879  19.4252640  24.5890542  56.6297474  20.3346514
  23.4435197  56.3458364  19.3864813  24.2171130  42.7677645  26.4657389
  23.3034210  42.9981872  26.6339596  24.6464231  42.8516089  27.3171422
  23.9877588  50.9567537  28.9657283  23.3349039  51.2043444  28.3109736
  24.3657968  50.1431675  28.6319761  20.9484762  60.9927230  23.0685454
  21.1307157  60.1748886  23.5313206  21.7717748  61.2094922  22.6310344
  21.2826928  59.9195415  20.3300502  21.8114694  59.4087870  19.7170664
  21.5455147  59.6037945  21.1946035  20.0365161  51.6987348  35.4523321
  19.3605798  51.5981477  36.1225696  20.8592795  51.5426561  35.9159318
  11.7844020  57.9359284  28.0735836  12.3697457  57.1902972  28.2063740
  11.5868859  58.2463241  28.9572500  14.6382676  60.9710532  23.0898278
  13.9693051  61.4556659  22.6062318  14.4995545  61.2179752  24.0041657
   6.3761675  50.5064884  26.7940279   6.4145775  49.9728475  27.5877397
   5.8701968  49.9800090  26.1751256  18.7787944  63.0054275  29.6880937
  19.3306252  63.1685897  30.4530022  19.1194138  63.5958713  29.0160961
  13.7552437  45.3529425  30.2902821  13.8193764  46.2144256  29.8780219
  13.6919558  44.7403427  29.5575180  13.2304710  47.4252557  33.9375855
  13.8576749  47.0429635  34.5513380  12.3732629  47.2066759  34.3031548
  10.0070253  49.2328987  19.8694210  10.3023694  48.3239665  19.8161264
   9.1058288  49.2116726  19.5475213  21.9156331  60.9536251  26.6744619
  21.7907471  60.1525991  26.1655564  22.5735423  61.4482444  26.1858589
  13.5364500  47.3084983  25.8521759  12.8151085  47.9220951  25.7129232
  14.3257755  47.8442748  25.7738405  23.9791240  58.7545271  28.3024169
  23.0321575  58.6350622  28.2302495  24.3274013  57.8667769  28.3850430
  16.3390813  44.6439410  32.1262411  16.8625215  44.8901706  32.8888720
  16.1203146  45.4759444  31.7065548  11.7358094  46.9143084  19.9933535
  11.4070800  46.0340463  19.8108641  12.0897465  46.8590753  20.8809925
  20.9837673  58.5497987  24.5028521  20.8362636  57.6214694  24.6836091
  21.8091167  58.5718078  24.0185596  14.8499917  47.2016054  20.3609013
  15.1895990  47.7301975  19.6387621  15.2972038  47.5396460  21.1367580
  24.5871795  59.3726546  25.5893394  25.5118342  59.1669407  25.4517845
  24.4187098  59.1242947  26.4982735  17.5443358  45.5853105  29.8112081
  17.2040179  44.7860918  30.2132761  16.8382365  45.8854816  29.2388914
  18.1959830  42.6702417  28.2639404  19.0185899  42.1962895  28.1418295
  18.4397894  43.4492901  28.7638090  16.8368065  45.6990676  18.5602306
  17.5576427  46.0771928  18.0566023  16.2133369  46.4179552  18.6637284
  20.9799187  46.4035825  19.4960638  21.1962802  47.2860462  19.1949466
  20.4993255  46.0122038  18.7666280  15.7198409  49.3621538  26.0731383
  15.5742990  49.6761841  26.9655664  15.2423612  49.9806438  25.5202281
  17.5794792  46.3524086  26.1212272  17.5656360  45.4565179  25.7844570
  18.2967220  46.3594750  26.7550558  19.4320922  46.7861426  28.1665400
  19.1738700  47.7078497  28.1649730  18.9005963  46.3891861  28.8565864
  24.3767111  59.8912213  20.9455485  24.5503989  59.3258636  20.1929338
  24.8696002  60.6913108  20.7634975  10.1944071  51.9026882  29.0119044
   9.6497539  52.6786690  29.1439318  11.0723421  52.2497687  28.8538165
  16.9831688  45.2338466  21.3899843  17.1047599  44.3055112  21.5890730
  16.6933730  45.2477152  20.4778158  19.8522878  42.9193377  24.5266562
  19.8744575  42.9832710  23.5718542  20.2690937  42.0797885  24.7207069
  30.2306502  52.6548636  22.5645785  30.6737648  51.9055961  22.1664908
  29.3533013  52.6458772  22.1819517  25.3642284  59.2078978  18.0452383
  26.0593188  59.8285670  18.2639698  25.7065434  58.3574329  18.3204761
  10.9810093  51.0296778  31.9049201  10.2391829  51.1779414  32.4913831
  10.6602837  51.2905044  31.0415950  27.2633707  56.6578683  19.5739714
  27.7885031  56.9965956  18.8489034  27.1756059  55.7225698  19.3902849
  18.9253755  60.5712757  31.7029591  19.2340882  60.3261903  32.5752290
  19.7229238  60.7759395  31.2148461  18.9474368  62.7250666  23.9334967
  18.5079358  62.2327045  24.6267824  19.6982485  62.1823634  23.6927043
  11.4266707  58.9162207  23.9359595  12.2524726  58.6165979  23.5558239
  11.0760759  58.1469830  24.3849384  16.3948240  58.2688675  26.0057269
  15.7728249  57.6059380  25.7059497  17.0653107  58.2949807  25.3230917
   9.6275312  56.8348534  24.8948529   8.7907220  56.4070708  24.7132530
   9.5998957  57.0280977  25.8319320  16.4672767  46.7470463  35.5989775
  16.5160923  47.6232586  35.2167545  17.0095281  46.2047857  35.0261418
  26.9527613  57.2911587  34.8790912  26.1623157  57.2735726  34.3395412
  26.7160967  57.8299880  35.6339949  27.0725488  54.1404053  32.1923641
  27.1223493  53.9754061  33.1339164  26.9639411  53.2731312  31.8021522
  15.9561747  56.8192599  19.4815730  16.1049867  57.5028063  18.8282402
  16.7628190  56.7997689  19.9965185  24.3629250  50.1234981  33.5082947
  25.2639113  49.9841446  33.2166945  24.4377225  50.2889436  34.4481125
  18.6972056  47.5001836  32.3536134  17.8275365  47.7935402  32.0818722
  18.9331536  48.0842281  33.0743397  28.5743685  56.5600995  32.4365662
  28.2828493  56.9230975  33.2729123  27.9615816  55.8468003  32.2578994
  29.7739367  54.1253874  24.9568233  30.6086258  54.5643678  25.1205793
  29.9098496  53.6492528  24.1376478  26.8230873  51.6833609  30.9045720
  27.2984995  51.8761256  30.0964572  25.8996438  51.7392795  30.6589104
  13.7114380  52.8457776  20.4876799  13.4660422  51.9420106  20.6857009
  13.8810294  52.8474927  19.5456277  21.4011089  43.7181453  29.8701554
  21.9193033  44.4542480  29.5448043  21.0466222  44.0245446  30.7048313
  12.9810027  48.5786134  17.9862960  12.2879272  48.6530489  17.3302996
  12.7361779  47.8146478  18.5084477  21.6523684  40.1381735  25.3902451
  21.9325437  39.4704924  26.0162877  22.4374291  40.3310831  24.8777115
  19.4557152  59.3140729  16.9527477  18.8831119  59.9330916  16.4997949
  20.0289946  59.8640091  17.4867399  25.5232542  48.5599369  29.1374026
  26.4749965  48.6597467  29.1586250  25.3535992  47.7677638  29.6472110
  23.5446921  45.6454953  29.3233427  22.9496854  45.9259965  28.6279915
  23.2596618  46.1348853  30.0950168  22.6754412  59.5977879  18.0836059
  23.6085085  59.5323441  18.2868935  22.5877625  60.4334146  17.6250592
  25.3042429  58.9143750  15.0440007  25.2256060  58.5803613  15.9375765
  26.1252095  59.4065518  15.0431479  28.0020620  51.7805489  28.2516326
  27.9696940  50.8421490  28.4376009  28.6121243  51.8589526  27.5182150
  19.8403951  50.6501542  14.2943530  20.7863055  50.5207750  14.3631948
  19.4618196  49.9116204  14.7712958  28.1515108  48.5716532  28.2974609
  27.6354157  47.7874989  28.1104538  29.0355057  48.2435249  28.4621128
  25.8125835  42.3157548  24.2570421  25.6150656  42.0072636  25.1413753
  26.4225541  43.0419187  24.3868351  33.8197170  52.8421496  27.3922362
  34.5500558  52.5806784  27.9530066  33.2104115  52.1050218  27.4324430
  31.9012467  50.9829358  27.9896814  31.1745630  50.8485323  27.3813305
  31.4859754  51.2906187  28.7953532  19.7242643  54.7019288  35.7544187
  20.6445653  54.8797887  35.9484233  19.6892226  53.7575333  35.6023886
  18.0246868  48.5751518  14.2298415  17.1178323  48.2784631  14.3061128
  18.3022849  48.2781336  13.3632701   8.9424808  49.8957882  24.6797461
   8.6227593  49.0423190  24.3871835   8.3958236  50.1106460  25.4355429
  12.7204716  52.6120323  28.3966968  12.9390725  53.5437431  28.4155002
  13.1330490  52.2528297  29.1821772  19.6408934  43.1188408  20.3842656
  18.8309662  42.7735493  20.7597902  20.3293350  42.8095952  20.9730268
  21.5699482  42.1966455  22.0066953  22.1230520  42.6161908  22.6656976
  21.8069568  41.2702203  22.0489909  17.5932581  48.1853529  37.7869717
  17.4929308  49.1347885  37.7181808  17.3754123  47.8571767  36.9145787
  16.7945652  45.4338454  14.3710394  17.6564816  45.7593352  14.6306211
  16.9795997  44.6469949  13.8583460   8.8113068  53.5160793  26.6490583
   8.1176540  53.1014746  26.1360537   9.5586059  53.5581330  26.0524002
  24.9478289  44.3066980  21.5145617  24.3676958  44.9651784  21.1323669
  24.6814222  43.4844325  21.1033034  23.3981855  43.7072038  23.7166937
  23.8981634  43.8188572  22.9081256  24.0417463  43.4033091  24.3567746
  17.4563851  51.6150667  36.6034778  16.9730933  52.4151027  36.8098667
  17.5424790  51.6258612  35.6502222  10.7249811  53.4479047  24.5256598
  10.7020499  53.5466734  23.5738481  11.0350447  54.2944198  24.8473764
  13.3837189  55.5055202  28.6403212  14.3380442  55.4739144  28.5733144
  13.1849712  55.0445826  29.4553438  13.9736571  54.0756318  31.2074010
  14.7929460  54.5700397  31.2308847  14.2473378  53.1588286  31.1791577
  23.7303167  46.4667070  20.5701965  22.8429022  46.7516721  20.3522160
  24.1457156  46.3060834  19.7229242  27.0817703  46.4913591  24.2856304
  27.8578093  46.9810044  24.5580921  26.3565837  46.9171646  24.7428174
  29.5190262  47.2041211  25.3430245  30.1134752  46.9636947  24.6323553
  29.5916845  46.4848341  25.9703781  11.7387417  61.0474822  25.6573410
  11.6041885  60.2875222  25.0911408  11.3219480  61.7715721  25.1902199
  22.8746380  56.2311745  14.6649985  23.5782230  56.4361748  15.2807641
  22.1509029  56.7988507  14.9299069  23.7044191  51.9821606  20.7852255
  23.6479392  52.4390158  19.9459888  24.2572533  51.2212291  20.6075098
  27.5148997  47.7711338  21.6102375  27.2585931  47.3707974  22.4410583
  26.8901865  48.4855132  21.4852514  31.8261334  50.5107411  24.1173666
  31.2660892  50.5800601  24.8905228  31.2204838  50.3348396  23.3973163
  14.8956543  61.9444139  25.8691853  14.7788927  62.8889571  25.7670543
  14.0748990  61.6417700  26.2577652  24.7833078  56.6694274  16.7148445
  25.6178682  56.2375473  16.5325920  24.6217421  56.4976288  17.6425340
  24.4378970  53.1726388  18.0804785  24.3827774  53.0070659  17.1393229
  23.8125025  53.8802421  18.2366974   9.2271485  48.4094452  31.9066207
   9.8730349  47.8993406  32.3953432   9.0188636  49.1463134  32.4809632
  17.7475095  42.6734497  17.6590103  17.7353765  43.6176337  17.8158374
  18.6398517  42.4904642  17.3649564  15.9211057  62.5972400  29.0847781
  16.8238304  62.6296011  29.4014276  15.6948427  61.6672851  29.0994117
  17.6764659  61.3503387  25.7457860  16.7260290  61.3505249  25.6322232
  17.9797146  60.6036122  25.2293894  21.5627215  39.2677273  21.9136040
  20.7959611  38.7135760  22.0592722  21.9737920  39.3399142  22.7750191
  13.5668976  45.5562069  36.0041221  14.4300437  45.1998874  36.2144546
  12.9934387  45.2175964  36.6916625  30.2207059  67.1391354  26.7465147
  29.8825571  67.0232418  25.8585682  31.0896827  66.7382519  26.7266153
  26.0793875  68.9926830  22.7362038  25.5158740  68.9016767  21.9678325
  25.9646270  68.1726734  23.2164530  23.6258307  70.4878022  25.5746258
  24.4179599  70.1468846  25.1592557  23.8654957  70.5972997  26.4948411
  31.6593434  72.6597798  18.0476503  31.0081413  73.2451878  17.6610516
  32.4537796  73.1903993  18.1071540  25.5849061  69.7486935  18.4463637
  26.3579937  69.2015922  18.3076513  25.9374460  70.6131184  18.6578098
  27.9215339  65.9079601  16.0782087  28.1740859  65.3861122  15.3165550
  26.9839898  65.7445746  16.1808770  32.9658621  64.9115379  23.8856830
  33.7521711  64.4934802  23.5347247  33.2297326  65.8161471  24.0538478
  33.1368699  70.3488230  18.5845487  32.5014532  70.4222856  19.2966392
  32.8066105  70.9381828  17.9064566  27.6411627  67.8107707  18.2806462
  27.5247885  67.1352610  18.9487546  27.7513887  67.3240081  17.4638615
  29.9843168  67.2717854  21.9853151  29.6201375  66.7448475  22.6966073
  30.8410284  66.8816323  21.8119636  35.8892469  58.5612187  29.2484417
  35.5575794  59.4307598  29.0245632  35.2938082  58.2448471  29.9278448
  29.6248655  62.3007754  16.9814500  29.7923058  63.1687990  17.3484971
  29.4345824  62.4635035  16.0575789  25.8336470  67.2138529  24.6817034
  24.9086966  67.0814744  24.8894726  26.0820883  67.9932749  25.1786977
  29.6037876  64.7565411  17.9661166  29.4837501  65.2022462  18.8046647
  28.9090464  65.1050729  17.4074705  23.1945281  66.8571803  25.5160823
  23.3237662  67.1106282  26.4300235  22.5142732  67.4499511  25.1965478
  27.3644768  77.5269053  21.6151298  27.2868798  78.4776878  21.6939778
  26.7606412  77.1814925  22.2726224  35.3022942  65.2286884  18.7941500
  36.2140798  65.4614271  18.6189198  34.7932589  65.8123929  18.2316579
  32.6458917  61.4044920  27.0431361  31.7843396  61.7026174  27.3348099
  32.6721352  61.6215319  26.1112394  29.4620486  69.9487111  23.4505167
  29.9258832  70.2274814  22.6609789  29.1977285  69.0470555  23.2678258
  26.3544567  69.4958592  26.3884930  26.9245925  69.9245861  25.7502415
  26.9452679  69.2141177  27.0869116  28.3989372  66.0710263  20.2594732
  29.1013416  66.5231307  20.7268658  28.0670001  65.4294082  20.8874625
  22.1414706  64.3293816  25.5611866  21.3513760  64.5851344  25.0851976
  22.6325954  65.1442154  25.6663906  24.0929452  64.6938395  22.5195342
  23.2960615  64.8057089  23.0378838  23.8655044  65.0325047  21.6536233
  20.4252409  64.5824306  27.9926856  20.6760448  65.4671316  28.2584432
  20.9611958  64.4028908  27.2201948  44.2484509  68.0137804  24.6602118
  43.4948217  67.4445202  24.5046122  44.3832050  67.9800468  25.6072753
  29.6383137  72.8851206  20.3356837  29.5028812  73.7302742  20.7641685
  30.1792950  73.0870484  19.5722771  26.1250477  58.9642786  36.9971193
  25.7317422  58.4108984  37.6718837  26.9416617  59.2753364  37.3877710
  23.0912534  70.4026644  20.9084762  23.6037055  71.1969894  21.0590327
  23.7435247  69.7052934  20.8418364  24.9007419  73.5192400  22.9907516
  25.0774048  74.4410365  22.8028499  25.6964253  73.2050819  23.4201895
  32.9875601  56.4081768  28.8655731  32.6439870  57.2983409  28.7894841
  33.3554563  56.2183425  28.0025316  21.0561451  68.7315298  21.6844333
  21.8936673  69.1412307  21.4678041  21.2339719  67.7914740  21.6544527
  32.9525883  66.3990379  17.3728166  32.4372507  67.1694983  17.6116553
  32.6803192  65.7255515  17.9961227  30.5372994  61.2440080  22.4313404
  29.6814591  60.8546930  22.2519043  30.9499946  61.3232040  21.5713190
  32.0672141  58.7786423  26.8304964  31.5636937  58.7416558  26.0172769
  32.3602748  59.6879166  26.8901621  28.3115027  58.8625153  25.8371146
  29.1768024  58.6667961  25.4777035  28.3792536  58.6335504  26.7640503
  37.9260157  69.1522734  19.3081339  37.1489600  68.8133893  18.8636501
  38.6051638  69.1575357  18.6336304  32.7412187  64.2717471  19.1987947
  32.4362322  64.5863620  20.0498090  33.6942629  64.3498891  19.2415280
  31.1858618  70.4307694  20.8480901  30.6579980  69.6960454  20.5354139
  30.6846121  71.2082371  20.6020869  25.9177346  61.0927361  23.2087513
  26.4921098  60.8702542  22.4760706  26.5048328  61.1616055  23.9616114
  26.2446933  63.1231822  17.2283398  25.4084245  63.4606508  17.5492673
  26.1051703  62.9880801  16.2910535  28.2200014  57.9668609  21.9362582
  27.5664426  57.6517627  21.3119197  28.1780488  57.3444350  22.6622405
  29.3311219  68.2487905  13.8515874  28.4238280  68.0177158  14.0507023
  29.8282251  67.4525524  14.0389856  32.2379297  76.9585412  16.7712560
  31.5640996  77.2617108  17.3797518  32.6245119  77.7614492  16.4218017
  31.4537754  64.4550543  26.2610230  30.5360315  64.6765490  26.1031918
  31.8697898  64.5296853  25.4021937  32.2372802  65.8541959  21.3912910
  32.9844621  66.3663356  21.0820032  32.5064391  65.5326011  22.2517303
  30.5099452  68.3500499  18.3739864  29.6010671  68.0659532  18.4712334
  30.5394536  68.7699578  17.5143171  35.7418719  71.9607089  22.1431032
  35.2881047  71.1197999  22.1996222  35.1112686  72.5968487  22.4805812
  34.6851639  62.8899075  23.3731699  33.9474396  62.3776461  23.7041942
  34.9378413  62.4499457  22.5614976  34.7863266  55.6675327  23.9673468
  35.0922143  54.8072690  23.6799384  35.5115871  56.2592947  23.7672462
  21.0787622  66.0706014  22.3555066  20.8812022  65.4775374  21.6306133
  20.5234286  65.7658224  23.0731005  30.2075540  69.8909243  15.7127943
  29.7694970  69.1745102  15.2533580  30.9485981  70.1185358  15.1513034
  26.9976706  64.5806180  22.2340038  26.1844572  64.8800350  22.6405231
  27.4935700  64.1861869  22.9514521  29.1485284  74.5763937  24.1674303
  29.1061463  74.8024783  23.2382835  30.0647983  74.3427311  24.3160104
  26.4890781  62.1524535  27.8501273  27.1290160  62.0113294  27.1524237
  25.6568311  61.8659049  27.4739875  27.2651085  71.4526966  23.9636266
  28.0591683  70.9577286  23.7618841  26.5542777  70.9244829  23.6003971
  23.5733848  65.5970047  20.0396019  22.6431436  65.5354503  20.2565981
  23.6691320  65.0746000  19.2432660  23.4919397  62.1224860  22.6274260
  23.7526214  63.0370194  22.5183421  24.3136569  61.6549303  22.7770873
  24.9644322  63.5362617  29.7973085  25.6367376  63.3279980  29.1485734
  24.1374109  63.3384703  29.3578317  39.2133584  70.2766668  29.3148418
  39.4069474  71.1812478  29.5607693  39.1134202  69.8174087  30.1487003
  30.8669894  60.1624558  31.8138746  30.2197810  60.8614508  31.7203222
  31.6370910  60.5960702  32.1814994  30.4370513  77.1265084  18.9859639
  30.6122268  76.6553127  19.8005262  29.7503301  77.7530850  19.2140900
  31.3927576  71.4037590  25.0322941  31.0577408  71.3638360  25.9280591
  30.8931521  70.7382306  24.5593351  34.3286767  68.7493625  15.3060000
  33.7115938  68.0240453  15.2093053  33.8603256  69.5102985  14.9627075
  26.7083054  63.5090398  31.8654841  26.1720411  63.0581136  32.5176437
  26.1199763  63.6436306  31.1225305  25.0031598  80.2754447  25.7599500
  25.2428196  80.9072971  26.4378518  24.1600794  79.9242487  26.0464859
  26.1185313  62.9679049  14.4281305  25.2414780  62.8467850  14.0643551
  26.5943066  62.1765127  14.1760193  17.6387453  67.7556209  24.5222812
  18.3258493  67.4417939  23.9343827  17.4835582  68.6597573  24.2490063
  22.4422176  62.6446405  28.9507835  22.3580364  62.0372075  28.2158245
  21.6204882  63.1355424  28.9517332  29.3049239  75.3205339  21.6743825
  28.5216761  75.8627020  21.7682050  30.0041985  75.8379319  22.0738066
  32.6145889  61.1299969  24.3178031  33.1114589  60.3769931  23.9979101
  31.8432871  61.1664285  23.7521240  33.6975670  69.8871656  21.8916454
  32.7631949  70.0073119  21.7221158  33.8752339  68.9844123  21.6276464
  29.1980858  63.2717352  24.0449715  28.8278646  62.7188392  24.7330621
  29.6939951  62.6675485  23.4924715  35.1524453  72.0732797  19.4252640
  35.4284297  71.9589391  20.3346514  34.2828951  71.6750281  19.3864813
  35.0564884  58.0969562  26.4657389  34.1427964  58.3273789  26.6339596
  35.4857986  58.1808006  27.3171422  31.7878517  76.3219147  23.0685454
  31.9700911  75.5040803  23.5313206  32.6111503  76.5386840  22.6310344
  32.1220682  75.2487333  20.3300502  32.6508449  74.7379787  19.7170664
  32.3848902  74.9329863  21.1946035  22.6237775  73.2651202  28.0735836
  23.2091212  72.5194890  28.2063740  22.4262613  73.5755159  28.9572500
  25.4776430  76.3002449  23.0898278  24.8086805  76.7848577  22.6062318
  25.3389300  76.5471670  24.0041657  17.2155430  65.8356802  26.7940279
  17.2539529  65.3020393  27.5877397  16.7095722  65.3092008  26.1751256
  29.6181699  78.3346193  29.6880937  30.1700007  78.4977814  30.4530022
  29.9587892  78.9250631  29.0160961  24.5946192  60.6821343  30.2902821
  24.6587518  61.5436174  29.8780219  24.5313312  60.0695344  29.5575180
  20.8464007  64.5620904  19.8694210  21.1417448  63.6531583  19.8161264
  19.9452043  64.5408644  19.5475213  32.7550086  76.2828168  26.6744619
  32.6301225  75.4817908  26.1655564  33.4129177  76.7774362  26.1858589
  24.3758254  62.6376901  25.8521759  23.6544840  63.2512869  25.7129232
  25.1651510  63.1734666  25.7738405  27.1784568  59.9731327  32.1262411
  27.7018970  60.2193624  32.8888720  26.9596901  60.8051362  31.7065548
  22.5751849  62.2435002  19.9933535  22.2464555  61.3632381  19.8108641
  22.9291219  62.1882671  20.8809925  31.8231428  73.8789905  24.5028521
  31.6756390  72.9506612  24.6836091  32.6484921  73.9009995  24.0185596
  25.6893672  62.5307972  20.3609013  26.0289744  63.0593893  19.6387621
  26.1365792  62.8688378  21.1367580  35.4265549  74.7018463  25.5893394
  36.3512097  74.4961325  25.4517845  35.2580853  74.4534865  26.4982735
  28.3837113  60.9145022  29.8112081  28.0433933  60.1152836  30.2132761
  27.6776119  61.2146733  29.2388914  29.0353585  57.9994335  28.2639404
  29.8579654  57.5254813  28.1418295  29.2791648  58.7784819  28.7638090
  27.6761819  61.0282593  18.5602306  28.3970182  61.4063846  18.0566023
  27.0527123  61.7471470  18.6637284  31.8192942  61.7327742  19.4960638
  32.0356556  62.6152380  19.1949466  31.3387009  61.3413956  18.7666280
  26.5592163  64.6913456  26.0731383  26.4136744  65.0053759  26.9655664
  26.0817367  65.3098356  25.5202281  28.4188546  61.6816003  26.1212272
  28.4050115  60.7857097  25.7844570  29.1360974  61.6886667  26.7550558
  30.2714677  62.1153344  28.1665400  30.0132455  63.0370414  28.1649730
  29.7399717  61.7183778  28.8565864  35.2160866  75.2204131  20.9455485
  35.3897743  74.6550553  20.1929338  35.7089757  76.0205026  20.7634975
  21.0337825  67.2318800  29.0119044  20.4891294  68.0078608  29.1439318
  21.9117175  67.5789604  28.8538165  27.8225442  60.5630384  21.3899843
  27.9441353  59.6347030  21.5890730  27.5327485  60.5769070  20.4778158
  30.6916633  58.2485294  24.5266562  30.7138329  58.3124627  23.5718542
  31.1084692  57.4089803  24.7207069  36.2036038  74.5370895  18.0452383
  36.8986943  75.1577588  18.2639698  36.5459188  73.6866246  18.3204761
  38.1027461  71.9870601  19.5739714  38.6278785  72.3257874  18.8489034
  38.0149814  71.0517616  19.3902849  29.7868122  78.0542584  23.9334967
  29.3473112  77.5618963  24.6267824  30.5376239  77.5115552  23.6927043
  22.2660461  74.2454125  23.9359595  23.0918481  73.9457897  23.5558239
  21.9154513  73.4761747  24.3849384  27.2341994  73.5980593  26.0057269
  26.6122003  72.9351298  25.7059497  27.9046861  73.6241725  25.3230917
  20.4669066  72.1640451  24.8948529  19.6300974  71.7362626  24.7132530
  20.4392711  72.3572895  25.8319320  26.7955501  72.1484516  19.4815730
  26.9443621  72.8319981  18.8282402  27.6021945  72.1289607  19.9965185
  24.5508134  68.1749694  20.4876799  24.3054176  67.2712024  20.6857009
  24.7204049  68.1766845  19.5456277  32.2404844  59.0473370  29.8701554
  32.7586788  59.7834397  29.5448043  31.8859977  59.3537364  30.7048313
  23.8203782  63.9078052  17.9862960  23.1273027  63.9822407  17.3302996
  23.5755534  63.1438395  18.5084477  32.4917438  55.4673653  25.3902451
  32.7719192  54.7996842  26.0162877  33.2768045  55.6602749  24.8777115
  30.2950907  74.6432647  16.9527477  29.7224874  75.2622834  16.4997949
  30.8683700  75.1932009  17.4867399  33.5148166  74.9269797  18.0836059
  34.4478840  74.8615359  18.2868935  33.4271379  75.7626064  17.6250592
  36.1436183  74.2435667  15.0440007  36.0649815  73.9095531  15.9375765
  36.9645850  74.7357435  15.0431479  30.6797705  65.9793460  14.2943530
  31.6256810  65.8499668  14.3631948  30.3011950  65.2408122  14.7712958
  36.6519590  57.6449466  24.2570421  36.4544411  57.3364554  25.1413753
  37.2619295  58.3711105  24.3868351  44.6590924  68.1713414  27.3922362
  45.3894313  67.9098702  27.9530066  44.0497870  67.4342135  27.4324430
  42.7406221  66.3121276  27.9896814  42.0139385  66.1777241  27.3813305
  42.3253508  66.6198105  28.7953532  28.8640622  63.9043436  14.2298415
  27.9572078  63.6076549  14.3061128  29.1416603  63.6073254  13.3632701
  19.7818563  65.2249799  24.6797461  19.4621347  64.3715108  24.3871835
  19.2351991  65.4398378  25.4355429  23.5598470  67.9412240  28.3966968
  23.7784480  68.8729348  28.4155002  23.9724244  67.5820215  29.1821772
  30.4802688  58.4480326  20.3842656  29.6703416  58.1027411  20.7597902
  31.1687105  58.1387869  20.9730268  32.4093236  57.5258373  22.0066953
  32.9624275  57.9453826  22.6656976  32.6463323  56.5994121  22.0489909
  27.6339407  60.7630371  14.3710394  28.4958571  61.0885270  14.6306211
  27.8189751  59.9761867  13.8583460  19.6506823  68.8452711  26.6490583
  18.9570294  68.4306664  26.1360537  20.3979814  68.8873247  26.0524002
  35.7872043  59.6358898  21.5145617  35.2070712  60.2943702  21.1323669
  35.5207976  58.8136242  21.1033034  34.2375610  59.0363955  23.7166937
  34.7375388  59.1480490  22.9081256  34.8811218  58.7325008  24.3567746
  21.5643565  68.7770965  24.5256598  21.5414253  68.8758652  23.5738481
  21.8744202  69.6236116  24.8473764  34.5696921  61.7958988  20.5701965
  33.6822776  62.0808639  20.3522160  34.9850910  61.6352751  19.7229242
  37.9211458  61.8205509  24.2856304  38.6971848  62.3101962  24.5580921
  37.1959592  62.2463563  24.7428174  40.3584016  62.5333128  25.3430245
  40.9528507  62.2928864  24.6323553  40.4310600  61.8140259  25.9703781
  22.5781172  76.3766739  25.6573410  22.4435640  75.6167140  25.0911408
  22.1613234  77.1007639  25.1902199  33.7140135  71.5603663  14.6649985
  34.4175985  71.7653665  15.2807641  32.9902784  72.1280425  14.9299069
  34.5437945  67.3113524  20.7852255  34.4873147  67.7682075  19.9459888
  35.0966288  66.5504209  20.6075098  38.3542751  63.1003256  21.6102375
  38.0979685  62.6999892  22.4410583  37.7295619  63.8147050  21.4852514
  42.6655089  65.8399329  24.1173666  42.1054647  65.9092518  24.8905228
  42.0598592  65.6640314  23.3973163  25.7350298  77.2736056  25.8691853
  25.6182682  78.2181489  25.7670543  24.9142744  76.9709618  26.2577652
  35.6226832  71.9986192  16.7148445  36.4572436  71.5667390  16.5325920
  35.4611175  71.8268206  17.6425340  35.2772724  68.5018305  18.0804785
  35.2221528  68.3362577  17.1393229  34.6518780  69.2094338  18.2366974
  28.5868850  58.0026414  17.6590103  28.5747520  58.9468254  17.8158374
  29.4792272  57.8196560  17.3649564  26.7604812  77.9264318  29.0847781
  27.6632059  77.9587928  29.4014276  26.5342182  76.9964769  29.0994117
  28.5158414  76.6795305  25.7457860  27.5654045  76.6797166  25.6322232
  28.8190900  75.9328039  25.2293894  32.4020969  54.5969191  21.9136040
  31.6353365  54.0427678  22.0592722  32.8131674  54.6691060  22.7750191
  44.2511107  82.5155843  26.8103622  44.8889517  82.3962590  26.1066962
  44.1331950  83.4636687  26.8691574  41.0600814  82.4683271  26.7465147
  40.7219325  82.3524336  25.8585682  41.9290582  82.0674436  26.7266153
  36.9187629  84.3218748  22.7362038  36.3552494  84.2308685  21.9678325
  36.8040024  83.5018652  23.2164530  41.5420597  83.6218123  32.7051352
  41.5309237  83.2270921  31.8331856  41.7041236  82.8884196  33.2985124
  34.4652061  85.8169939  25.5746258  35.2573353  85.4760764  25.1592557
  34.7048711  85.9264914  26.4948411  42.4987188  87.9889715  18.0476503
  41.8475168  88.5743796  17.6610516  43.2931551  88.5195910  18.1071540
  36.4242815  85.0778852  18.4463637  37.1973691  84.5307840  18.3076513
  36.7768214  85.9423102  18.6578098  38.2627858  86.4055235  31.6530536
  37.9717724  87.3100866  31.5377203  38.8984842  86.4471762  32.3674606
  39.1884065  83.7832083  28.2431896  39.7847637  83.5588106  27.5288859
  39.2459036  83.0416829  28.8457344  38.7609093  81.2371519  16.0782087
  39.0134614  80.7153040  15.3165550  37.8233652  81.0737664  16.1808770
  43.8052376  80.2407297  23.8856830  44.5915465  79.8226720  23.5347247
  44.0691080  81.1453389  24.0538478  43.9762453  85.6780147  18.5845487
  43.3408286  85.7514774  19.2966392  43.6459860  86.2673746  17.9064566
  49.2060803  80.1782530  24.7889809  49.9385975  79.6081747  25.0227638
  48.4500159  79.7904131  25.2296314  38.4805382  83.1399625  18.2806462
  38.3641640  82.4644528  18.9487546  38.5907642  82.6531998  17.4638615
  40.8236923  82.6009772  21.9853151  40.4595130  82.0740393  22.6966073
  41.6804039  82.2108241  21.8119636  46.7286223  73.8904104  29.2484417
  46.3969548  74.7599515  29.0245632  46.1331837  73.5740388  29.9278448
  40.4642410  77.6299671  16.9814500  40.6316812  78.4979908  17.3484971
  40.2739579  77.7926953  16.0575789  43.2217743  86.0916650  28.6480330
  42.9218466  86.9941689  28.5396137  42.8768802  85.8248833  29.5001483
  36.6730224  82.5430447  24.6817034  35.7480721  82.4106661  24.8894726
  36.9214638  83.3224666  25.1786977  46.6214887  78.6099190  26.3277767
  45.7131764  78.5414599  26.0336528  46.5702482  79.0871135  27.1559593
  40.4431631  80.0857329  17.9661166  40.3231256  80.5314380  18.8046647
  39.7484219  80.4342647  17.4074705  34.0339035  82.1863721  25.5160823
  34.1631417  82.4398200  26.4300235  33.3536487  82.7791429  25.1965478
  38.2038523  92.8560971  21.6151298  38.1262552  93.8068796  21.6939778
  37.6000166  92.5106843  22.2726224  40.6955752  80.0288836  34.2712665
  39.9189086  80.5882756  34.2615529  41.3346315  80.5145619  34.7927535
  48.4876533  76.8115629  28.1055641  47.8450913  77.1048162  27.4595436
  47.9831462  76.6968549  28.9108838  46.1416697  80.5578802  18.7941500
  47.0534553  80.7906189  18.6189198  45.6326344  81.1415846  18.2316579
  38.9502125  82.8374289  33.8330632  39.6916809  83.3759333  33.5565455
  38.2439110  83.4640578  33.9902183  44.4257464  84.9803430  32.4302793
  44.8340820  84.5385840  31.6857425  43.7034726  84.4056057  32.6836986
  40.7788534  79.9176037  29.8036350  41.6249730  80.3415450  29.9470999
  40.7187172  79.2609661  30.4974913  44.7486279  85.5404620  26.1855082
  44.1195141  85.7050335  25.4831150  44.3611941  85.9546230  26.9566046
  48.6275511  86.4759058  23.5399446  47.9426549  86.8557960  22.9896479
  48.7119360  87.0854385  24.2731393  43.9287980  77.5780405  31.4617524
  43.6848912  78.3322465  30.9251799  44.2047910  77.9565753  32.2964771
  45.8826443  84.1219017  30.1394789  46.0943338  84.7650777  29.4629170
  45.8356191  83.2881334  29.6716719  43.4852671  76.7336838  27.0431361
  42.6237151  77.0318092  27.3348099  43.5115106  76.9507237  26.1112394
  40.3014241  85.2779029  23.4505167  40.7652586  85.5566732  22.6609789
  40.0371039  84.3762473  23.2678258  37.1938322  84.8250510  26.3884930
  37.7639679  85.2537778  25.7502415  37.7846434  84.5433095  27.0869116
  39.2383127  81.4002181  20.2594732  39.9407170  81.8523225  20.7268658
  38.9063755  80.7586000  20.8874625  32.9808461  79.6585734  25.5611866
  32.1907515  79.9143262  25.0851976  33.4719708  80.4734071  25.6663906
  46.9972270  86.9990973  28.3117147  47.8189714  86.5971160  28.0299828
  46.9934673  86.8959207  29.2633262  34.9323206  80.0230313  22.5195342
  34.1354370  80.1349007  23.0378838  34.7048798  80.3616965  21.6536233
  40.7628874  86.5475016  30.4677857  40.8273306  87.0095423  31.3036029
  40.0539798  85.9172381  30.5960167  31.2646164  79.9116224  27.9926856
  31.5154202  80.7963234  28.2584432  31.8005712  79.7320826  27.2201948
  55.0878264  83.3429721  24.6602118  54.3341972  82.7737119  24.5046122
  55.2225805  83.3092386  25.6072753  40.4776892  88.2143124  20.3356837
  40.3422566  89.0594659  20.7641685  41.0186704  88.4162401  19.5722771
  33.9306289  85.7318562  20.9084762  34.4430810  86.5261812  21.0590327
  34.5829002  85.0344852  20.8418364  35.7401174  88.8484318  22.9907516
  35.9167802  89.7702283  22.8028499  36.5358007  88.5342737  23.4201895
  42.1045368  88.8366690  34.4657179  41.6609222  88.0503069  34.1478084
  42.7662582  89.0245841  33.8001070  36.8632489  90.3662492  28.9917858
  37.4139914  90.2379555  28.2194852  36.0243965  90.6657381  28.6412751
  44.2026606  89.1169490  32.4938581  44.1845081  89.9378371  32.0018850
  45.1246526  88.9923565  32.7188722  40.6599660  86.6313619  33.3362089
  41.1927997  85.8701908  33.1061397  40.1313741  86.3387271  34.0786244
  31.8955206  84.0607216  21.6844333  32.7330428  84.4704224  21.4678041
  32.0733473  83.1206658  21.6544527  43.7919638  81.7282297  17.3728166
  43.2766261  82.4986901  17.6116553  43.5196946  81.0547433  17.9961227
  41.3766749  76.5731997  22.4313404  40.5208345  76.1838848  22.2519043
  41.7893701  76.6523958  21.5713190  42.9065896  74.1078341  26.8304964
  42.4030691  74.0708476  26.0172769  43.1996502  75.0171083  26.8901621
  39.1508781  74.1917070  25.8371146  40.0161778  73.9959879  25.4777035
  39.2186290  73.9627422  26.7640503  48.7653912  84.4814651  19.3081339
  47.9883355  84.1425811  18.8636501  49.4445393  84.4867274  18.6336304
  43.5805941  79.6009389  19.1987947  43.2756077  79.9155538  20.0498090
  44.5336383  79.6790809  19.2415280  42.0252373  85.7599612  20.8480901
  41.4973734  85.0252372  20.5354139  41.5239876  86.5374288  20.6020869
  47.0045219  83.9548632  25.9647947  46.3468893  84.6447894  26.0528076
  47.8085618  84.3445064  26.3081934  36.7571100  76.4219278  23.2087513
  37.3314852  76.1994460  22.4760706  37.3442083  76.4907973  23.9616114
  45.8150678  82.3093005  24.0151889  46.3282559  82.9422997  24.5173599
  46.4651902  81.7094201  23.6495249  37.0840688  78.4523739  17.2283398
  36.2478000  78.7898426  17.5492673  36.9445457  78.3172719  16.2910535
  39.0593768  73.2960527  21.9362582  38.4058181  72.9809544  21.3119197
  39.0174242  72.6736268  22.6622405  40.1704973  83.5779822  13.8515874
  39.2632035  83.3469076  14.0507023  40.6676005  82.7817441  14.0389856
  43.0773052  92.2877329  16.7712560  42.4034751  92.5909026  17.3797518
  43.4638874  93.0906410  16.4218017  42.2931509  79.7842461  26.2610230
  41.3754070  80.0057408  26.1031918  42.7091652  79.8588771  25.4021937
  43.0766556  81.1833876  21.3912910  43.8238375  81.6955274  21.0820032
  43.3458146  80.8617929  22.2517303  41.3493206  83.6792417  18.3739864
  40.4404426  83.3951450  18.4712334  41.3788290  84.0991496  17.5143171
  46.5812474  87.2899007  22.1431032  46.1274801  86.4489916  22.1996222
  45.9506441  87.9260405  22.4805812  45.5245393  78.2190993  23.3731699
  44.7868150  77.7068379  23.7041942  45.7772167  77.7791374  22.5614976
  45.0245413  89.1275503  23.0780850  45.3168388  89.6880560  22.3593216
  45.5344034  89.4204064  23.8334009  45.6257021  70.9967245  23.9673468
  45.9315898  70.1364608  23.6799384  46.3509626  71.5884865  23.7672462
  31.9181377  81.3997931  22.3555066  31.7205777  80.8067292  21.6306133
  31.3628041  81.0950141  23.0731005  39.8978101  81.2921038  24.4749660
  39.9526710  80.3394874  24.3992136  39.0869303  81.4480477  24.9590958
  41.0469294  85.2201161  15.7127943  40.6088724  84.5037020  15.2533580
  41.7879735  85.4477276  15.1513034  37.8370460  79.9098097  22.2340038
  37.0238326  80.2092268  22.6405231  38.3329455  79.5153786  22.9514521
  39.9879038  89.9055854  24.1674303  39.9455217  90.1316701  23.2382835
  40.9041737  89.6719229  24.3160104  43.4344672  80.3739922  31.0654932
  43.7894060  80.6011395  31.9249398  44.0816803  80.7058299  30.4432188
  49.1642409  83.4958358  21.7704261  49.0260308  83.6859954  20.8425451
  48.8078628  84.2577741  22.2272312  37.3284535  77.4816453  27.8501273
  37.9683915  77.3405212  27.1524237  36.4962066  77.1950966  27.4739875
  49.1911789  85.5634885  26.7815533  49.6248295  85.4710174  27.6298587
  49.9043369  85.5392385  26.1435549  38.1044839  86.7818883  23.9636266
  38.8985438  86.2869204  23.7618841  37.3936532  86.2536747  23.6003971
  42.9239684  89.1636979  28.3148633  42.9776706  89.7327915  29.0826349
  42.0554465  89.3338864  27.9502671  34.4127603  80.9261965  20.0396019
  33.4825191  80.8646421  20.2565981  34.5085075  80.4037918  19.2432660
  34.3313152  77.4516778  22.6274260  34.5919969  78.3662111  22.5183421
  35.1530324  76.9841221  22.7770873  35.8038077  78.8654535  29.7973085
  36.4761130  78.6571897  29.1485734  34.9767863  78.6676621  29.3578317
  50.0527338  85.6058585  29.3148418  50.2463228  86.5104396  29.5607693
  49.9527956  85.1466005  30.1487003  41.7063649  75.4916476  31.8138746
  41.0591564  76.1906426  31.7203222  42.4764664  75.9252620  32.1814994
  45.1142447  85.7565328  34.8889299  44.9627953  85.5275880  33.9719383
  45.1047126  86.7135930  34.9020644  41.8827783  83.3297241  29.8735565
  42.8119843  83.4808401  29.7004533  41.4618813  83.4181262  29.0184212
  40.6816115  87.3547905  27.6434103  40.5427201  86.9866690  28.5160041
  39.8930711  87.8695545  27.4718061  41.2764267  92.4557002  18.9859639
  41.4516023  91.9845045  19.8005262  40.5897055  93.0822768  19.2140900
  42.2321330  86.7329508  25.0322941  41.8971163  86.6930278  25.9280591
  41.7325276  86.0674224  24.5593351  36.2065574  82.1397138  30.5575522
  36.0685372  81.4077377  31.1587061  37.1170498  82.0506038  30.2759710
  45.1680522  84.0785542  15.3060000  44.5509693  83.3532371  15.2093053
  44.6997010  84.8394903  14.9627075  38.8347875  81.8517097  30.0459202
  39.5447493  81.2110290  30.0045820  38.7917183  82.1029992  30.9685382
  46.8234654  88.7884451  32.9665781  46.7647200  88.1043671  32.2996364
  47.2254172  89.5303441  32.5146407  35.8425352  95.6046365  25.7599500
  36.0821951  96.2364889  26.4378518  34.9994549  95.2534405  26.0464859
  36.9579068  78.2970967  14.4281305  36.0808534  78.1759767  14.0643551
  37.4336821  77.5057045  14.1760193  46.8252061  86.7524035  31.1979760
  45.9378840  86.4149956  31.3206159  47.3950612  86.0207066  31.4348526
  28.4781208  83.0848126  24.5222812  29.1652248  82.7709856  23.9343827
  28.3229337  83.9889491  24.2490063  33.2815930  77.9738323  28.9507835
  33.1974119  77.3663993  28.2158245  32.4598637  78.4647341  28.9517332
  40.3553214  91.4125487  28.1641004  40.2823386  92.2180459  28.6760308
  39.9130607  91.6117453  27.3389025  40.1442994  90.6497257  21.6743825
  39.3610516  91.1918937  21.7682050  40.8435739  91.1671237  22.0738066
  43.4539644  76.4591887  24.3178031  43.9508344  75.7061849  23.9979101
  42.6826625  76.4956203  23.7521240  51.3069401  82.1632252  25.9596322
  51.2959278  83.0456967  25.5890255  50.4386781  81.8103803  25.7650859
  42.8151898  91.3112321  30.3199162  43.5279870  91.9459786  30.2475064
  42.3241926  91.4076187  29.5039164  44.5369425  85.2163574  21.8916454
  43.6025703  85.3365036  21.7221158  44.7146093  84.3136041  21.6276464
  40.0374613  78.6009270  24.0449715  39.6672400  78.0480310  24.7330621
  40.5333705  77.9967403  23.4924715  47.9241976  81.0580893  22.4266488
  48.3902428  81.8908885  22.3526791  48.3749477  80.5925875  23.1311747
  37.8663811  89.0606765  31.1404733  38.5673271  89.6943247  31.2934127
  37.3958926  89.4021496  30.3800372  45.9918207  87.4024714  19.4252640
  46.2678051  87.2881309  20.3346514  45.1222706  87.0042199  19.3864813
  45.8958639  73.4261480  26.4657389  44.9821719  73.6565707  26.6339596
  46.3251740  73.5099924  27.3171422  45.6665097  81.6151372  28.9657283
  45.0136547  81.8627279  28.3109736  46.0445477  80.8015510  28.6319761
  42.6272271  91.6511065  23.0685454  42.8094666  90.8332721  23.5313206
  43.4505257  91.8678757  22.6310344  42.9614437  90.5779250  20.3300502
  43.4902203  90.0671705  19.7170664  43.2242656  90.2621780  21.1946035
  41.7152670  82.3571183  35.4523321  41.0393307  82.2565312  36.1225696
  42.5380304  82.2010397  35.9159318  33.4631529  88.5943120  28.0735836
  34.0484966  87.8486807  28.2063740  33.2656368  88.9047076  28.9572500
  36.3170185  91.6294367  23.0898278  35.6480560  92.1140495  22.6062318
  36.1783054  91.8763587  24.0041657  28.0549184  81.1648720  26.7940279
  28.0933284  80.6312310  27.5877397  27.5489477  80.6383925  26.1751256
  40.4575453  93.6638110  29.6880937  41.0093761  93.8269732  30.4530022
  40.7981647  94.2542548  29.0160961  35.4339946  76.0113260  30.2902821
  35.4981273  76.8728091  29.8780219  35.3707067  75.3987262  29.5575180
  45.3086327  88.4899368  35.5429591  45.8526231  89.1029326  35.0484546
  44.7273172  89.0478946  36.0596604  31.6857762  79.8912822  19.8694210
  31.9811203  78.9823500  19.8161264  30.7845797  79.8700561  19.5475213
  43.5943840  91.6120086  26.6744619  43.4694980  90.8109826  26.1655564
  44.2522932  92.1066279  26.1858589  35.2152009  77.9668819  25.8521759
  34.4938594  78.5804786  25.7129232  36.0045264  78.5026583  25.7738405
  45.6578749  89.4129106  28.3024169  44.7109084  89.2934457  28.2302495
  46.0061522  88.5251604  28.3850430  33.4145603  77.5726920  19.9933535
  33.0858309  76.6924299  19.8108641  33.7684974  77.5174588  20.8809925
  42.6625182  89.2081822  24.5028521  42.5150145  88.2798530  24.6836091
  43.4878676  89.2301913  24.0185596  36.5287426  77.8599889  20.3609013
  36.8683499  78.3885811  19.6387621  36.9759547  78.1980296  21.1367580
  46.2659304  90.0310381  25.5893394  47.1905851  89.8253242  25.4517845
  46.0974607  89.7826782  26.4982735  39.2230867  76.2436940  29.8112081
  38.8827688  75.4444753  30.2132761  38.5169874  76.5438651  29.2388914
  39.8747339  73.3286253  28.2639404  40.6973408  72.8546731  28.1418295
  40.1185403  74.1076736  28.7638090  38.5155574  76.3574511  18.5602306
  39.2363936  76.7355764  18.0566023  37.8920878  77.0763388  18.6637284
  42.6586696  77.0619660  19.4960638  42.8750311  77.9444298  19.1949466
  42.1780764  76.6705873  18.7666280  37.3985918  80.0205373  26.0731383
  37.2530499  80.3345676  26.9655664  36.9211121  80.6390274  25.5202281
  39.2582301  77.0107921  26.1212272  39.2443869  76.1149014  25.7844570
  39.9754729  77.0178585  26.7550558  41.1108431  77.4445261  28.1665400
  40.8526209  78.3662332  28.1649730  40.5793472  77.0475696  28.8565864
  46.0554620  90.5496048  20.9455485  46.2291498  89.9842471  20.1929338
  46.5483511  91.3496943  20.7634975  31.8731580  82.5610718  29.0119044
  31.3285048  83.3370526  29.1439318  32.7510930  82.9081522  28.8538165
  38.6619197  75.8922301  21.3899843  38.7835108  74.9638948  21.5890730
  38.3721239  75.9060987  20.4778158  41.5310387  73.5777212  24.5266562
  41.5532084  73.6416545  23.5718542  41.9478446  72.7381721  24.7207069
  51.9094011  83.3132471  22.5645785  52.3525157  82.5639797  22.1664908
  51.0320522  83.3042608  22.1819517  47.0429793  89.8662813  18.0452383
  47.7380697  90.4869506  18.2639698  47.3852943  89.0158164  18.3204761
  32.6597602  81.6880614  31.9049201  31.9179338  81.8363249  32.4913831
  32.3390346  81.9488879  31.0415950  48.9421216  87.3162518  19.5739714
  49.4672540  87.6549791  18.8489034  48.8543568  86.3809534  19.3902849
  40.6041264  91.2296592  31.7029591  40.9128391  90.9845739  32.5752290
  41.4016747  91.4343231  31.2148461  40.6261877  93.3834502  23.9334967
  40.1866867  92.8910880  24.6267824  41.3769993  92.8407469  23.6927043
  33.1054216  89.5746043  23.9359595  33.9312235  89.2749814  23.5558239
  32.7548268  88.8053665  24.3849384  38.0735749  88.9272511  26.0057269
  37.4515758  88.2643216  25.7059497  38.7440616  88.9533643  25.3230917
  31.3062821  87.4932369  24.8948529  30.4694729  87.0654543  24.7132530
  31.2786466  87.6864812  25.8319320  48.6315122  87.9495422  34.8790912
  47.8410666  87.9319561  34.3395412  48.3948476  88.4883716  35.6339949
  48.7512997  84.7987888  32.1923641  48.8011002  84.6337896  33.1339164
  48.6426920  83.9315147  31.8021522  37.6349256  87.4776434  19.4815730
  37.7837376  88.1611899  18.8282402  38.4415699  87.4581524  19.9965185
  46.0416759  80.7818816  33.5082947  46.9426622  80.6425281  33.2166945
  46.1164734  80.9473271  34.4481125  40.3759565  78.1585671  32.3536134
  39.5062874  78.4519237  32.0818722  40.6119045  78.7426116  33.0743397
  50.2531194  87.2184830  32.4365662  49.9616002  87.5814811  33.2729123
  49.6403325  86.5051838  32.2578994  51.4526876  84.7837710  24.9568233
  52.2873767  85.2227514  25.1205793  51.5886005  84.3076363  24.1376478
  48.5018382  82.3417445  30.9045720  48.9772504  82.5345091  30.0964572
  47.5783947  82.3976630  30.6589104  35.3901889  83.5041612  20.4876799
  35.1447931  82.6003942  20.6857009  35.5597803  83.5058762  19.5456277
  43.0798598  74.3765288  29.8701554  43.5980542  75.1126315  29.5448043
  42.7253731  74.6829281  30.7048313  34.6597536  79.2369969  17.9862960
  33.9666781  79.3114324  17.3302996  34.4149288  78.4730313  18.5084477
  43.3311193  70.7965571  25.3902451  43.6112946  70.1288760  26.0162877
  44.1161800  70.9894666  24.8777115  41.1344661  89.9724565  16.9527477
  40.5618628  90.5914752  16.4997949  41.7077455  90.5223926  17.4867399
  47.2020051  79.2183205  29.1374026  48.1537474  79.3181302  29.1586250
  47.0323501  78.4261473  29.6472110  45.2234430  76.3038788  29.3233427
  44.6284363  76.5843801  28.6279915  44.9384127  76.7932689  30.0950168
  44.3541921  90.2561715  18.0836059  45.2872594  90.1907276  18.2868935
  44.2665134  91.0917982  17.6250592  46.9829938  89.5727585  15.0440007
  46.9043569  89.2387449  15.9375765  47.8039604  90.0649353  15.0431479
  49.6808129  82.4389324  28.2516326  49.6484449  81.5005325  28.4376009
  50.2908752  82.5173361  27.5182150  41.5191460  81.3085377  14.2943530
  42.4650564  81.1791585  14.3631948  41.1405705  80.5700039  14.7712958
  49.8302617  79.2300368  28.2974609  49.3141666  78.4458824  28.1104538
  50.7142566  78.9019084  28.4621128  47.4913344  72.9741383  24.2570421
  47.2938165  72.6656472  25.1413753  48.1013050  73.7003022  24.3868351
  55.4984679  83.5005331  27.3922362  56.2288067  83.2390619  27.9530066
  54.8891624  82.7634053  27.4324430  53.5799976  81.6413194  27.9896814
  52.8533139  81.5069159  27.3813305  53.1647263  81.9490022  28.7953532
  41.4030152  85.3603123  35.7544187  42.3233162  85.5381722  35.9484233
  41.3679735  84.4159169  35.6023886  39.7034377  79.2335354  14.2298415
  38.7965832  78.9368466  14.3061128  39.9810358  78.9365172  13.3632701
  30.6212317  80.5541717  24.6797461  30.3015101  79.7007025  24.3871835
  30.0745745  80.7690295  25.4355429  34.3992225  83.2704158  28.3966968
  34.6178234  84.2021266  28.4155002  34.8117999  82.9112133  29.1821772
  41.3196442  73.7772243  20.3842656  40.5097171  73.4319328  20.7597902
  42.0080859  73.4679787  20.9730268  43.2486991  72.8550290  22.0066953
  43.8018029  73.2745744  22.6656976  43.4857077  71.9286038  22.0489909
  38.4733161  76.0922289  14.3710394  39.3352325  76.4177187  14.6306211
  38.6583506  75.3053785  13.8583460  30.4900577  84.1744629  26.6490583
  29.7964049  83.7598581  26.1360537  31.2373568  84.2165165  26.0524002
  46.6265798  74.9650815  21.5145617  46.0464467  75.6235619  21.1323669
  46.3601731  74.1428160  21.1033034  45.0769364  74.3655873  23.7166937
  45.5769143  74.4772408  22.9081256  45.7204972  74.0616926  24.3567746
  39.1351360  82.2734503  36.6034778  38.6518442  83.0734863  36.8098667
  39.2212299  82.2842448  35.6502222  32.4037320  84.1062882  24.5256598
  32.3808008  84.2050570  23.5738481  32.7137956  84.9528033  24.8473764
  35.0624698  86.1639037  28.6403212  36.0167951  86.1322980  28.5733144
  34.8637221  85.7029661  29.4553438  35.6524080  84.7340153  31.2074010
  36.4716969  85.2284232  31.2308847  35.9260887  83.8172122  31.1791577
  45.4090676  77.1250906  20.5701965  44.5216531  77.4100556  20.3522160
  45.8244665  76.9644669  19.7229242  48.7605212  77.1497427  24.2856304
  49.5365602  77.6393879  24.5580921  48.0353346  77.5755481  24.7428174
  51.1977771  77.8625046  25.3430245  51.7922261  77.6220782  24.6323553
  51.2704354  77.1432177  25.9703781  33.4174926  91.7058657  25.6573410
  33.2829394  90.9459058  25.0911408  33.0006989  92.4299557  25.1902199
  44.5533889  86.8895580  14.6649985  45.2569739  87.0945583  15.2807641
  43.8296538  87.4572342  14.9299069  45.3831700  82.6405442  20.7852255
  45.3266901  83.0973993  19.9459888  45.9360042  81.8796126  20.6075098
  49.1936506  78.4295174  21.6102375  48.9373440  78.0291809  22.4410583
  48.5689374  79.1438968  21.4852514  53.5048843  81.1691247  24.1173666
  52.9448401  81.2384436  24.8905228  52.8992347  80.9932231  23.3973163
  36.5744052  92.6027974  25.8691853  36.4576436  93.5473406  25.7670543
  35.7536498  92.3001535  26.2577652  46.4620587  87.3278110  16.7148445
  47.2966191  86.8959308  16.5325920  46.3004930  87.1560123  17.6425340
  46.1166479  83.8310223  18.0804785  46.0615283  83.6654494  17.1393229
  45.4912534  84.5386256  18.2366974  30.9058994  79.0678287  31.9066207
  31.5517858  78.5577241  32.3953432  30.6976145  79.8046969  32.4809632
  43.4312386  86.1359135  37.4058347  44.3003546  86.3099787  37.0444982
  42.9519138  86.9553552  37.2834077  39.4262604  73.3318332  17.6590103
  39.4141274  74.2760172  17.8158374  40.3186026  73.1488477  17.3649564
  37.5998566  93.2556236  29.0847781  38.5025813  93.2879846  29.4014276
  37.3735936  92.3256687  29.0994117  39.3552168  92.0087222  25.7457860
  38.4047799  92.0089084  25.6322232  39.6584655  91.2619957  25.2293894
  43.2414724  69.9261109  21.9136040  42.4747120  69.3719595  22.0592722
  43.6525429  69.9982977  22.7750191  55.0904862  97.8447761  26.8103622
  55.7283272  97.7254508  26.1066962  54.9725705  98.7928605  26.8691574
  51.8994568  97.7975189  26.7465147  51.5613080  97.6816254  25.8585682
  52.7684336  97.3966354  26.7266153  47.7581384  99.6510665  22.7362038
  47.1946249  99.5600602  21.9678325  47.6433779  98.8310570  23.2164530
  52.3814351  98.9510041  32.7051352  52.3702992  98.5562839  31.8331856
  52.5434991  98.2176113  33.2985124  45.3045816 101.1461857  25.5746258
  46.0967108 100.8052682  25.1592557  45.5442466 101.2556832  26.4948411
  47.2636570 100.4070770  18.4463637  48.0367446  99.8599757  18.3076513
  47.6161969 101.2715019  18.6578098  49.1021612 101.7347152  31.6530536
  48.8111478 102.6392783  31.5377203  49.7378597 101.7763680  32.3674606
  50.0277819  99.1124001  28.2431896  50.6241391  98.8880023  27.5288859
  50.0852791  98.3708746  28.8457344  49.6002848  96.5663436  16.0782087
  49.8528368  96.0444958  15.3165550  48.6627407  96.4029582  16.1808770
  54.6446130  95.5699215  23.8856830  55.4309220  95.1518638  23.5347247
  54.9084835  96.4745307  24.0538478  60.0454557  95.5074448  24.7889809
  60.7779729  94.9373665  25.0227638  59.2893913  95.1196048  25.2296314
  49.3199136  98.4691542  18.2806462  49.2035394  97.7936446  18.9487546
  49.4301396  97.9823916  17.4638615  51.6630677  97.9301689  21.9853151
  51.2988884  97.4032310  22.6966073  52.5197793  97.5400158  21.8119636
  57.5679978  89.2196022  29.2484417  57.2363303  90.0891433  29.0245632
  56.9725591  88.9032306  29.9278448  51.3036164  92.9591589  16.9814500
  51.4710567  93.8271825  17.3484971  51.1133333  93.1218871  16.0575789
  54.0611497 101.4208568  28.6480330  53.7612220 102.3233607  28.5396137
  53.7162557 101.1540751  29.5001483  47.5123979  97.8722365  24.6817034
  46.5874475  97.7398579  24.8894726  47.7608392  98.6516584  25.1786977
  57.4608641  93.9391108  26.3277767  56.5525518  93.8706517  26.0336528
  57.4096237  94.4163053  27.1559593  51.2825385  95.4149247  17.9661166
  51.1625010  95.8606297  18.8046647  50.5877973  95.7634564  17.4074705
  44.8732790  97.5155638  25.5160823  45.0025171  97.7690117  26.4300235
  44.1930241  98.1083346  25.1965478  51.5349507  95.3580754  34.2712665
  50.7582841  95.9174674  34.2615529  52.1740070  95.8437537  34.7927535
  59.3270288  92.1407546  28.1055641  58.6844668  92.4340080  27.4595436
  58.8225216  92.0260467  28.9108838  56.9810451  95.8870720  18.7941500
  57.8928307  96.1198106  18.6189198  56.4720098  96.4707764  18.2316579
  49.7895879  98.1666207  33.8330632  50.5310564  98.7051251  33.5565455
  49.0832865  98.7932496  33.9902183  55.2651219 100.3095348  32.4302793
  55.6734575  99.8677758  31.6857425  54.5428480  99.7347975  32.6836986
  51.6182289  95.2467954  29.8036350  52.4643484  95.6707368  29.9470999
  51.5580927  94.5901579  30.4974913  55.5880034 100.8696538  26.1855082
  54.9588896 101.0342252  25.4831150  55.2005696 101.2838148  26.9566046
  59.4669265 101.8050976  23.5399446  58.7820304 102.1849877  22.9896479
  59.5513115 102.4146303  24.2731393  54.7681734  92.9072323  31.4617524
  54.5242666  93.6614383  30.9251799  55.0441665  93.2857670  32.2964771
  56.7220197  99.4510935  30.1394789  56.9337092 100.0942695  29.4629170
  56.6749945  98.6173252  29.6716719  54.3246426  92.0628756  27.0431361
  53.4630905  92.3610009  27.3348099  54.3508861  92.2799155  26.1112394
  51.1407995 100.6070946  23.4505167  51.6046341 100.8858649  22.6609789
  50.8764793  99.7054391  23.2678258  48.0332076 100.1542428  26.3884930
  48.6033434 100.5829696  25.7502415  48.6240188  99.8725012  27.0869116
  50.0776881  96.7294099  20.2594732  50.7800925  97.1815142  20.7268658
  49.7457510  96.0877917  20.8874625  48.5257243  95.3205855  34.6345942
  47.8955904  96.0022136  34.8681338  48.4193331  95.2088937  33.6899080
  43.8202215  94.9877651  25.5611866  43.0301269  95.2435180  25.0851976
  44.3113463  95.8025989  25.6663906  57.8366025 102.3282890  28.3117147
  58.6583469 101.9263078  28.0299828  57.8328428 102.2251125  29.2633262
  45.7716961  95.3522231  22.5195342  44.9748124  95.4640925  23.0378838
  45.5442553  95.6908883  21.6536233  51.6022628 101.8766934  30.4677857
  51.6667061 102.3387341  31.3036029  50.8933552 101.2464299  30.5960167
  42.1039918  95.2408142  27.9926856  42.3547957  96.1255152  28.2584432
  42.6399467  95.0612743  27.2201948  65.9272018  98.6721639  24.6602118
  65.1735726  98.1029037  24.5046122  66.0619559  98.6384303  25.6072753
  51.3170646 103.5435041  20.3356837  51.1816321 104.3886577  20.7641685
  51.8580459 103.7454319  19.5722771  47.8037986  89.6226621  36.9971193
  47.4104931  89.0692820  37.6718837  48.6204126  89.9337200  37.3877710
  44.7700043 101.0610479  20.9084762  45.2824564 101.8553730  21.0590327
  45.4222756 100.3636770  20.8418364  50.7205947  91.0384500  34.5891449
  51.4615660  91.6391653  34.5095912  50.9523870  90.2962138  34.0309492
  45.8647285  96.2240867  32.8669679  45.7500800  95.3226125  33.1676778
  45.0091802  96.4704564  32.5154495  52.9439122 104.1658608  34.4657179
  52.5002977 103.3794986  34.1478084  53.6056336 104.3537758  33.8001070
  55.0420361 104.4461408  32.4938581  55.0238836 105.2670289  32.0018850
  55.9640281 104.3215483  32.7188722  51.4993415 101.9605537  33.3362089
  52.0321751 101.1993825  33.1061397  50.9707496 101.6679189  34.0786244
  54.6663110  87.0665603  28.8655731  54.3227379  87.9567245  28.7894841
  55.0342072  86.8767261  28.0025316  42.7348960  99.3899134  21.6844333
  43.5724182  99.7996142  21.4678041  42.9127228  98.4498576  21.6544527
  54.6313392  97.0574214  17.3728166  54.1160016  97.8278819  17.6116553
  54.3590701  96.3839350  17.9961227  52.2160503  91.9023915  22.4313404
  51.3602100  91.5130765  22.2519043  52.6287455  91.9815876  21.5713190
  53.7459650  89.4370258  26.8304964  53.2424446  89.4000393  26.0172769
  54.0390257  90.3463001  26.8901621  49.9902536  89.5208988  25.8371146
  50.8555533  89.3251797  25.4777035  50.0580045  89.2919340  26.7640503
  54.4199696  94.9301306  19.1987947  54.1149831  95.2447455  20.0498090
  55.3730138  95.0082726  19.2415280  52.8646127 101.0891530  20.8480901
  52.3367489 100.3544289  20.5354139  52.3633630 101.8666206  20.6020869
  57.8438973  99.2840550  25.9647947  57.1862648  99.9739812  26.0528076
  58.6479373  99.6736982  26.3081934  47.5964855  91.7511196  23.2087513
  48.1708607  91.5286377  22.4760706  48.1835837  91.8199890  23.9616114
  56.6544432  97.6384923  24.0151889  57.1676314  98.2714915  24.5173599
  57.3045656  97.0386118  23.6495249  47.9234442  93.7815657  17.2283398
  47.0871754  94.1190343  17.5492673  47.7839212  93.6464637  16.2910535
  49.8987523  88.6252445  21.9362582  49.2451935  88.3101462  21.3119197
  49.8567997  88.0028185  22.6622405  53.1325263  95.1134378  26.2610230
  52.2147824  95.3349325  26.1031918  53.5485407  95.1880689  25.4021937
  53.9160311  96.5125794  21.3912910  54.6632130  97.0247191  21.0820032
  54.1851900  96.1909847  22.2517303  52.1886961  99.0084335  18.3739864
  51.2798180  98.7243368  18.4712334  52.2182045  99.4283413  17.5143171
  57.4206228 102.6190924  22.1431032  56.9668556 101.7781834  22.1996222
  56.7900195 103.2552323  22.4805812  56.3639148  93.5482910  23.3731699
  55.6261905  93.0360296  23.7041942  56.6165921  93.1083292  22.5614976
  55.8639168 104.4567421  23.0780850  56.1562142 105.0172478  22.3593216
  56.3737788 104.7495982  23.8334009  56.4650775  86.3259162  23.9673468
  56.7709652  85.4656526  23.6799384  57.1903380  86.9176782  23.7672462
  42.7575131  96.7289849  22.3555066  42.5599531  96.1359210  21.6306133
  42.2021795  96.4242059  23.0731005  50.7371855  96.6212955  24.4749660
  50.7920465  95.6686792  24.3992136  49.9263057  96.7772394  24.9590958
  48.6764215  95.2390015  22.2340038  47.8632080  95.5384186  22.6405231
  49.1723209  94.8445704  22.9514521  50.8272793 105.2347772  24.1674303
  50.7848972 105.4608618  23.2382835  51.7435492 105.0011147  24.3160104
  54.2738427  95.7031840  31.0654932  54.6287814  95.9303313  31.9249398
  54.9210558  96.0350216  30.4432188  60.0036164  98.8250275  21.7704261
  59.8654062  99.0151871  20.8425451  59.6472382  99.5869658  22.2272312
  48.1678290  92.8108371  27.8501273  48.8077669  92.6697130  27.1524237
  47.3355820  92.5242884  27.4739875  60.0305543 100.8926802  26.7815533
  60.4642050 100.8002092  27.6298587  60.7437124 100.8684303  26.1435549
  48.9438594 102.1110801  23.9636266  49.7379192 101.6161121  23.7618841
  48.2330286 101.5828664  23.6003971  53.7633438 104.4928897  28.3148633
  53.8170460 105.0619833  29.0826349  52.8948219 104.6630782  27.9502671
  45.2521357  96.2553883  20.0396019  44.3218945  96.1938338  20.2565981
  45.3478829  95.7329836  19.2432660  45.1706906  92.7808696  22.6274260
  45.4313723  93.6954029  22.5183421  45.9924078  92.3133138  22.7770873
  46.6431831  94.1946453  29.7973085  47.3154885  93.9863815  29.1485734
  45.8161618  93.9968539  29.3578317  60.8921093 100.9350503  29.3148418
  61.0856983 101.8396314  29.5607693  60.7921711 100.4757922  30.1487003
  52.5457403  90.8208394  31.8138746  51.8985319  91.5198343  31.7203222
  53.3158419  91.2544538  32.1814994  55.9536201 101.0857246  34.8889299
  55.8021708 100.8567798  33.9719383  55.9440881 102.0427847  34.9020644
  52.7221538  98.6589159  29.8735565  53.6513598  98.8100318  29.7004533
  52.3012568  98.7473179  29.0184212  51.5209870 102.6839823  27.6434103
  51.3820955 102.3158607  28.5160041  50.7324466 103.1987462  27.4718061
  53.0715085 102.0621426  25.0322941  52.7364917 102.0222196  25.9280591
  52.5719030 101.3966142  24.5593351  47.0459329  97.4689056  30.5575522
  46.9079127  96.7369295  31.1587061  47.9564252  97.3797956  30.2759710
  49.6741629  97.1809015  30.0459202  50.3841248  96.5402207  30.0045820
  49.6310938  97.4321910  30.9685382  57.6628408 104.1176368  32.9665781
  57.6040954 103.4335589  32.2996364  58.0647926 104.8595358  32.5146407
  48.3870563  94.1674233  31.8654841  47.8507920  93.7164971  32.5176437
  47.7987272  94.3020142  31.1225305  47.7972822  93.6262884  14.4281305
  46.9202289  93.5051685  14.0643551  48.2730575  92.8348963  14.1760193
  57.6645815 102.0815952  31.1979760  56.7772594 101.7441874  31.3206159
  58.2344366 101.3498984  31.4348526  39.3174962  98.4140044  24.5222812
  40.0046002  98.1001774  23.9343827  39.1623091  99.3181409  24.2490063
  44.1209685  93.3030241  28.9507835  44.0367873  92.6955910  28.2158245
  43.2992391  93.7939259  28.9517332  54.2933398  91.7883804  24.3178031
  54.7902098  91.0353767  23.9979101  53.5220380  91.8248121  23.7521240
  62.1463156  97.4924170  25.9596322  62.1353032  98.3748885  25.5890255
  61.2780535  97.1395721  25.7650859  53.6545652 106.6404239  30.3199162
  54.3673624 107.2751704  30.2475064  53.1635681 106.7368105  29.5039164
  55.3763179 100.5455491  21.8916454  54.4419458 100.6656954  21.7221158
  55.5539848  99.6427958  21.6276464  50.8768367  93.9301187  24.0449715
  50.5066155  93.3772228  24.7330621  51.3727460  93.3259321  23.4924715
  58.7635730  96.3872811  22.4266488  59.2296183  97.2200802  22.3526791
  59.2143231  95.9217792  23.1311747  48.7057566 104.3898682  31.1404733
  49.4067025 105.0235165  31.2934127  48.2352681 104.7313414  30.3800372
  56.7352393  88.7553398  26.4657389  55.8215473  88.9857625  26.6339596
  57.1645495  88.8391842  27.3171422  56.5058852  96.9443290  28.9657283
  55.8530302  97.1919197  28.3109736  56.8839232  96.1307428  28.6319761
  53.4666026 106.9802983  23.0685454  53.6488420 106.1624639  23.5313206
  54.2899012 107.1970675  22.6310344  52.5546425  97.6863101  35.4523321
  51.8787062  97.5857230  36.1225696  53.3774059  97.5302314  35.9159318
  38.8942939  96.4940637  26.7940279  38.9327038  95.9604228  27.5877397
  38.3883231  95.9675843  26.1751256  46.2733701  91.3405178  30.2902821
  46.3375027  92.2020009  29.8780219  46.2100821  90.7279180  29.5575180
  45.7485973  93.4128311  33.9375855  46.3758012  93.0305388  34.5513380
  44.8913892  93.1942512  34.3031548  56.1480082 103.8191286  35.5429591
  56.6919986 104.4321244  35.0484546  55.5666927 104.3770864  36.0596604
  42.5251516  95.2204740  19.8694210  42.8204957  94.3115418  19.8161264
  41.6239552  95.1992479  19.5475213  54.4337595 106.9412004  26.6744619
  54.3088734 106.1401744  26.1655564  55.0916686 107.4358197  26.1858589
  46.0545763  93.2960736  25.8521759  45.3332349  93.9096704  25.7129232
  46.8439019  93.8318501  25.7738405  56.4972503 104.7421024  28.3024169
  55.5502839 104.6226375  28.2302495  56.8455276 103.8543522  28.3850430
  48.8572077  90.6315163  32.1262411  49.3806478  90.8777459  32.8888720
  48.6384410  91.4635197  31.7065548  44.2539358  92.9018837  19.9933535
  43.9252064  92.0216216  19.8108641  44.6078728  92.8466506  20.8809925
  53.5018937 104.5373740  24.5028521  53.3543899 103.6090447  24.6836091
  54.3272430 104.5593831  24.0185596  47.3681181  93.1891807  20.3609013
  47.7077253  93.7177728  19.6387621  47.8153301  93.5272213  21.1367580
  57.1053058 105.3602299  25.5893394  58.0299606 105.1545160  25.4517845
  56.9368362 105.1118700  26.4982735  50.0624622  91.5728858  29.8112081
  49.7221442  90.7736671  30.2132761  49.3563628  91.8730569  29.2388914
  50.7141094  88.6578170  28.2639404  51.5367163  88.1838648  28.1418295
  50.9579157  89.4368654  28.7638090  49.3549328  91.6866429  18.5602306
  50.0757691  92.0647681  18.0566023  48.7314632  92.4055305  18.6637284
  53.4980451  92.3911578  19.4960638  53.7144065  93.2736216  19.1949466
  53.0174518  91.9997791  18.7666280  48.2379672  95.3497291  26.0731383
  48.0924253  95.6637594  26.9655664  47.7604876  95.9682191  25.5202281
  50.0976055  92.3399839  26.1212272  50.0837624  91.4440932  25.7844570
  50.8148483  92.3470503  26.7550558  51.9502186  92.7737179  28.1665400
  51.6919964  93.6954250  28.1649730  51.4187226  92.3767614  28.8565864
  42.7125334  97.8902635  29.0119044  42.1678803  98.6662443  29.1439318
  43.5904684  98.2373440  28.8538165  49.5012951  91.2214219  21.3899843
  49.6228862  90.2930865  21.5890730  49.2114993  91.2352905  20.4778158
  52.3704142  88.9069130  24.5266562  52.3925838  88.9708463  23.5718542
  52.7872201  88.0673638  24.7207069  62.7487766  98.6424389  22.5645785
  63.1918912  97.8931714  22.1664908  61.8714276  98.6334525  22.1819517
  43.4991356  97.0172532  31.9049201  42.7573092  97.1655167  32.4913831
  43.1784101  97.2780797  31.0415950  48.9129503 104.2564428  26.0057269
  48.2909512 103.5935133  25.7059497  49.5834370 104.2825560  25.3230917
  42.1456575 102.8224287  24.8948529  41.3088483 102.3946461  24.7132530
  42.1180220 103.0156730  25.8319320  48.9854031  92.7346216  35.5989775
  49.0342186  93.6108339  35.2167545  49.5276545  92.1923610  35.0261418
  59.4708876 103.2787340  34.8790912  58.6804420 103.2611479  34.3395412
  59.2342231 103.8175633  35.6339949  59.5906751 100.1279806  32.1923641
  59.6404756  99.9629814  33.1339164  59.4820675  99.2607065  31.8021522
  48.4743010 102.8068352  19.4815730  48.6231130 103.4903816  18.8282402
  49.2809454 102.7873442  19.9965185  56.8810514  96.1110734  33.5082947
  57.7820377  95.9717199  33.2166945  56.9558488  96.2765189  34.4481125
  51.2153319  93.4877589  32.3536134  50.3456629  93.7811155  32.0818722
  51.4512799  94.0718034  33.0743397  61.0924948 102.5476748  32.4365662
  60.8009757 102.9106728  33.2729123  60.4797079 101.8343756  32.2578994
  62.2920631 100.1129627  24.9568233  63.1267522 100.5519431  25.1205793
  62.4279759  99.6368281  24.1376478  59.3412136  97.6709362  30.9045720
  59.8166258  97.8637009  30.0964572  58.4177702  97.7268548  30.6589104
  46.2295643  98.8333529  20.4876799  45.9841685  97.9295859  20.6857009
  46.3991558  98.8350680  19.5456277  53.9192353  89.7057206  29.8701554
  54.4374297  90.4418233  29.5448043  53.5647486  90.0121199  30.7048313
  45.4991291  94.5661887  17.9862960  44.8060536  94.6406242  17.3302996
  45.2543042  93.8022231  18.5084477  54.1704947  86.1257488  25.3902451
  54.4506701  85.4580677  26.0162877  54.9555554  86.3186584  24.8777115
  58.0413805  94.5475122  29.1374026  58.9931228  94.6473220  29.1586250
  57.8717256  93.7553391  29.6472110  56.0628185  91.6330706  29.3233427
  55.4678117  91.9135718  28.6279915  55.7777882  92.1224606  30.0950168
  60.5201883  97.7681242  28.2516326  60.4878203  96.8297243  28.4376009
  61.1302507  97.8465279  27.5182150  60.6696372  94.5592285  28.2974609
  60.1535420  93.7750742  28.1104538  61.5536320  94.2311002  28.4621128
  58.3307099  88.3033301  24.2570421  58.1331920  87.9948389  25.1413753
  58.9406804  89.0294940  24.3868351  66.3378433  98.8297249  27.3922362
  67.0681822  98.5682537  27.9530066  65.7285379  98.0925971  27.4324430
  64.4193730  96.9705111  27.9896814  63.6926894  96.8361076  27.3813305
  64.0041017  97.2781940  28.7953532  52.2423907 100.6895041  35.7544187
  53.1626916 100.8673640  35.9484233  52.2073490  99.7451086  35.6023886
  50.5428131  94.5627271  14.2298415  49.6359587  94.2660384  14.3061128
  50.8204112  94.2657089  13.3632701  41.4606072  95.8833635  24.6797461
  41.1408856  95.0298943  24.3871835  40.9139500  96.0982213  25.4355429
  45.2385979  98.5996076  28.3966968  45.4571989  99.5313184  28.4155002
  45.6511753  98.2404050  29.1821772  52.1590197  89.1064161  20.3842656
  51.3490925  88.7611246  20.7597902  52.8474614  88.7971705  20.9730268
  54.0880745  88.1842208  22.0066953  54.6411784  88.6037661  22.6656976
  54.3250832  87.2577956  22.0489909  50.1113844  94.1729282  37.7869717
  50.0110571  95.1223639  37.7181808  49.8935387  93.8447520  36.9145787
  49.3126916  91.4214207  14.3710394  50.1746080  91.7469105  14.6306211
  49.4977260  90.6345703  13.8583460  41.3294332  99.5036546  26.6490583
  40.6357803  99.0890499  26.1360537  42.0767323  99.5457083  26.0524002
  57.4659552  90.2942733  21.5145617  56.8858221  90.9527537  21.1323669
  57.1995485  89.4720078  21.1033034  55.9163119  89.6947791  23.7166937
  56.4162897  89.8064325  22.9081256  56.5598727  89.3908844  24.3567746
  49.9745115  97.6026420  36.6034778  49.4912196  98.4026781  36.8098667
  50.0606054  97.6134365  35.6502222  43.2431074  99.4354800  24.5256598
  43.2201762  99.5342487  23.5738481  43.5531711 100.2819951  24.8473764
  45.9018452 101.4930955  28.6403212  46.8561706 101.4614897  28.5733144
  45.7030976 101.0321579  29.4553438  46.4917834 100.0632071  31.2074010
  47.3110723 100.5576150  31.2308847  46.7654642  99.1464039  31.1791577
  56.2484430  92.4542823  20.5701965  55.3610285  92.7392474  20.3522160
  56.6638419  92.2936587  19.7229242  59.5998967  92.4789344  24.2856304
  60.3759357  92.9685797  24.5580921  58.8747101  92.9047399  24.7428174
  62.0371525  93.1916964  25.3430245  62.6316016  92.9512700  24.6323553
  62.1098109  92.4724094  25.9703781  56.2225454  97.9697359  20.7852255
  56.1660656  98.4265911  19.9459888  56.7753797  97.2088044  20.6075098
  60.0330260  93.7587091  21.6102375  59.7767194  93.3583727  22.4410583
  59.4083128  94.4730885  21.4852514  64.3442598  96.4983165  24.1173666
  63.7842156  96.5676354  24.8905228  63.7386101  96.3224149  23.3973163
  41.7452748  94.3970205  31.9066207  42.3911612  93.8869159  32.3953432
  41.5369900  95.1338887  32.4809632  54.2706141 101.4651052  37.4058347
  55.1397300 101.6391705  37.0444982  53.7912892 102.2845469  37.2834077
  50.2656359  88.6610250  17.6590103  50.2535029  89.6052090  17.8158374
  51.1579781  88.4780395  17.3649564  54.0808478  85.2553026  21.9136040
  53.3140874  84.7011513  22.0592722  54.4919183  85.3274895  22.7750191
  46.0850239  91.5437822  36.0041221  46.9481701  91.1874627  36.2144546
  45.5115650  91.2051717  36.6916625  68.4073732 104.5487940  29.2484417
  68.0757057 105.4183351  29.0245632  67.8119346 104.2324224  29.9278448
  65.6075489 108.2364240  31.4617524  65.3636421 108.9906301  30.9251799
  65.8835419 108.6149588  32.2964771  58.6431740 104.9518539  36.9971193
  58.2498686 104.3984737  37.6718837  59.4597881 105.2629117  37.3877710
  61.5599701 106.3676418  34.5891449  62.3009415 106.9683571  34.5095912
  61.7917624 105.6254056  34.0309492  65.5056864 102.3957521  28.8655731
  65.1621134 103.2859162  28.7894841  65.8735827 102.2059178  28.0025316
  64.5853405 104.7662176  26.8304964  64.0818200 104.7292311  26.0172769
  64.8784011 105.6754919  26.8901621  60.8296290 104.8500906  25.8371146
  61.6949287 104.6543714  25.4777035  60.8973799 104.6211257  26.7640503
  65.1132181 111.0323757  31.0654932  65.4681569 111.2595230  31.9249398
  65.7604312 111.3642134  30.4432188  59.0072044 108.1400288  27.8501273
  59.6471424 107.9989047  27.1524237  58.1749575 107.8534802  27.4739875
  63.3851158 106.1500311  31.8138746  62.7379073 106.8490261  31.7203222
  64.1552173 106.5836455  32.1814994  67.5746148 104.0845315  26.4657389
  66.6609228 104.3149542  26.6339596  68.0039249 104.1683759  27.3171422
  57.1127455 106.6697096  30.2902821  57.1768782 107.5311927  29.8780219
  57.0494576 106.0571097  29.5575180  59.6965831 105.9607080  32.1262411
  60.2200233 106.2069377  32.8888720  59.4778164 106.7927115  31.7065548
  60.9018376 106.9020775  29.8112081  60.5615197 106.1028589  30.2132761
  60.1957382 107.2022486  29.2388914  61.5534848 103.9870088  28.2639404
  62.3760917 103.5130566  28.1418295  61.7972912 104.7660572  28.7638090
  60.9369810 107.6691757  26.1212272  60.9231378 106.7732850  25.7844570
  61.6542238 107.6762420  26.7550558  62.7895940 108.1029097  28.1665400
  62.5313718 109.0246167  28.1649730  62.2580981 107.7059531  28.8565864
  63.2097896 104.2361047  24.5266562  63.2319593 104.3000380  23.5718542
  63.6265955 103.3965556  24.7207069  59.8247785 108.0638134  35.5989775
  59.8735941 108.9400257  35.2167545  60.3670299 107.5215527  35.0261418
  67.7204268 111.4402652  33.5082947  68.6214131 111.3009117  33.2166945
  67.7952243 111.6057107  34.4481125  62.0547074 108.8169507  32.3536134
  61.1850383 109.1103073  32.0818722  62.2906554 109.4009952  33.0743397
  64.7586107 105.0349124  29.8701554  65.2768051 105.7710150  29.5448043
  64.4041240 105.3413117  30.7048313  65.0098702 101.4549406  25.3902451
  65.2900455 100.7872595  26.0162877  65.7949309 101.6478502  24.8777115
  66.9021939 106.9622623  29.3233427  66.3071872 107.2427636  28.6279915
  66.6171636 107.4516524  30.0950168  56.9243994 106.8729740  36.0041221
  57.7875455 106.5166545  36.2144546  56.3509405 106.5343635  36.6916625
  19.8633089  29.9696410  19.4296659  19.8521730  29.5749208  18.5577163
  20.0253728  29.2362483  20.0230430  16.5840350  32.7533522  18.3775843
  16.2930216  33.6579153  18.2622509  17.2197334  32.7950050  19.0919912
  21.5430235  32.4394937  15.3725637  21.2430958  33.3419976  15.2641444
  21.1981295  32.1727121  16.2246789  19.0168245  26.3767123  20.9957971
  18.2401579  26.9361043  20.9860836  19.6558808  26.8623906  21.5172841
  17.2714617  29.1852577  20.5575938  18.0129301  29.7237621  20.2810762
  16.5651602  29.8118865  20.7147490  22.7469957  31.3281717  19.1548100
  23.1553313  30.8864128  18.4102732  22.0247218  30.7534345  19.4082293
  22.2500472  23.9258692  18.1862830  22.0061404  24.6800753  17.6497106
  22.5260403  24.3044040  19.0210077  24.2038935  30.4697305  16.8640096
  24.4155830  31.1129064  16.1874477  24.1568683  29.6359621  16.3962026
  16.0075981  26.3392225  21.3591248  15.3774641  27.0208506  21.5926645
  15.9012069  26.2275306  20.4144386  25.3184763  33.3469260  15.0362453
  26.1402206  32.9449447  14.7545135  25.3147166  33.2437494  15.9878569
  19.0841366  32.8953303  17.1923164  19.1485799  33.3573711  18.0281335
  18.3752290  32.2650668  17.3205473  33.4090756  29.6908008  11.3847425
  32.6554464  29.1215407  11.2291429  33.5438297  29.6570673  12.3318059
  15.2856723  20.6412991  23.7216499  14.8923669  20.0879189  24.3964143
  16.1022864  20.9523569  24.1123017  18.2024684  22.0570870  21.3136756
  18.9434398  22.6578023  21.2341218  18.4342607  21.3148508  20.7554798
  13.3466022  27.2427237  19.5914985  13.2319538  26.3412494  19.8922084
  12.4910540  27.4890934  19.2399802  20.4257860  35.1844977  21.1902486
  19.9821714  34.3981356  20.8723391  21.0875074  35.3724128  20.5246377
  15.1844981  36.7140779  15.7163165  15.7352407  36.5857842  14.9440159
  14.3456457  37.0135668  15.3658057  22.5239098  35.4647777  19.2183887
  22.5057574  36.2856658  18.7264156  23.4459018  35.3401852  19.4434028
  18.9812152  32.9791907  20.0607396  19.5140489  32.2180195  19.8306704
  18.4526234  32.6865559  20.8031550  25.3257711  30.3026920  12.6893254
  24.6681386  30.9926181  12.7773383  26.1298110  30.6923352  13.0327240
  21.7557164  26.7218209  17.7900239  22.1106552  26.9489682  18.6494705
  22.4029296  27.0536586  17.1677494  27.5124281  31.9113172  13.5060839
  27.9460788  31.8188461  14.3543894  28.2255862  31.8870673  12.8680855
  21.2452176  35.5115266  15.0393940  21.2989198  36.0806202  15.8071656
  20.3766957  35.6817151  14.6747977  28.3739831  31.9536873  16.0393725
  28.5675721  32.8582683  16.2853000  28.2740449  31.4944292  16.8732310
  23.4354939  32.1043615  21.6134605  23.2840446  31.8754167  20.6964689
  23.4259619  33.0614217  21.6265951  20.2040276  29.6775528  16.5980872
  21.1332336  29.8286688  16.4249839  19.7831306  29.7659549  15.7429518
  19.0028607  33.7026193  14.3679410  18.8639693  33.3344977  15.2405348
  18.2143204  34.2173832  14.1963367  25.1447146  35.1362738  19.6911087
  25.0859692  34.4521958  19.0241670  25.5466664  35.8781728  19.2391713
  14.1637845  41.9524652  12.4844806  14.4034443  42.5843176  13.1623825
  13.3207041  41.6012692  12.7710166  25.1464553  33.1002322  17.9225067
  24.2591332  32.7628244  18.0451466  25.7163104  32.3685353  18.1593832
  18.6765707  37.7603774  14.8886310  18.6035878  38.5658746  15.4005615
  18.2343100  37.9595740  14.0634332  29.6281894  28.5110539  12.6841629
  29.6171770  29.3935255  12.3135562  28.7599273  28.1582090  12.4896166
  21.1364390  37.6590608  17.0444469  21.8492362  38.2938073  16.9720370
  20.6454419  37.7554474  16.2284471  16.1876304  35.4085052  17.8650040
  16.8885763  36.0421535  18.0179434  15.7171419  35.7499783  17.1045679
  23.9877590  27.9629659  15.6902590  23.3349040  28.2105567  15.0355043
  24.3657969  27.1493797  15.3565067  20.9484763  37.9989352   9.7930760
  21.1307158  37.1811008  10.2558513  21.7717749  38.2157045   9.3555650
  20.0365163  28.7049470  22.1768627  19.3605800  28.6043600  22.8471002
  20.8592796  28.5488684  22.6404624  18.7787945  40.0116398  16.4126243
  19.3306253  40.1748019  17.1775328  19.1194139  40.6020836  15.7406268
  23.6298820  34.8377655  22.2674898  24.1738724  35.4507614  21.7729852
  23.0485665  35.3957234  22.7841911  21.9156333  37.9598373  13.3989925
  21.7907472  37.1588113  12.8900871  22.5735424  38.4544567  12.9103895
  23.9791241  35.7607393  15.0269475  23.0321577  35.6412745  14.9547802
  24.3274014  34.8729891  15.1095737  24.5871796  36.3788668  12.3138700
  25.5118344  36.1731530  12.1763152  24.4187100  36.1305069  13.2228042
  18.9253757  37.5774879  18.4274898  19.2340883  37.3324026  19.2997597
  19.7229239  37.7821518  17.9393768  18.9474369  39.7312789  10.6580274
  18.5079359  39.2389168  11.3513131  19.6982486  39.1885757  10.4172349
  16.4672768  23.7532586  22.3235082  16.5160924  24.6294709  21.9412851
  17.0095283  23.2109979  21.7506725  26.9527614  34.2973709  21.6036219
  26.1623158  34.2797848  21.0640718  26.7160969  34.8362003  22.3585255
  27.0725489  31.1466176  18.9168947  27.1223494  30.9816183  19.8584470
  26.9639413  30.2793435  18.5266828  24.3629252  27.1297104  20.2328254
  25.2639114  26.9903569  19.9412252  24.4377226  27.2951559  21.1726432
  18.6972057  24.5063958  19.0781440  17.8275366  24.7997525  18.8064029
  18.9331537  25.0904403  19.7988704  28.5743686  33.5663117  19.1610969
  28.2828494  33.9293098  19.9974430  27.9615817  32.8530125  18.9824301
  29.7739368  31.1315997  11.6813539  30.6086260  31.5705801  11.8451100
  29.9098497  30.6554650  10.8621785  26.8230874  28.6895732  17.6291027
  27.2984996  28.8823378  16.8209878  25.8996440  28.7454918  17.3834411
  25.5232543  25.5661492  15.8619333  26.4749966  25.6659590  15.8831557
  25.3535994  24.7739760  16.3717417  28.0020621  28.7867612  14.9761632
  27.9696941  27.8483612  15.1621316  28.6121245  28.8651648  14.2427457
  28.1515110  25.5778655  15.0219915  27.6354158  24.7937112  14.8349844
  29.0355058  25.2497372  15.1866435  33.8197171  29.8483618  14.1167669
  34.5500559  29.5868907  14.6775372  33.2104116  29.1112340  14.1569737
  31.9012468  27.9891481  14.7142120  31.1745632  27.8547446  14.1058612
  31.4859755  28.2968310  15.5198838  19.7242644  31.7081411  22.4789493
  20.6445654  31.8860010  22.6729540  19.6892227  30.7637456  22.3269192
  17.5932582  25.1915651  24.5115023  17.4929309  26.1410008  24.4427114
  17.3754124  24.8633890  23.6391093  17.4563852  28.6212790  23.3280085
  16.9730934  29.4213150  23.5343974  17.5424791  28.6320735  22.3747529
  13.9736572  31.0818441  17.9319316  14.7929461  31.5762519  17.9554154
  14.2473380  30.1650409  17.9036884  14.8956544  38.9506261  12.5937159
  14.7788929  39.8951694  12.4915849  14.0748991  38.6479823  12.9822958
  21.7524878  32.4837422  24.1303654  22.6216038  32.6578074  23.7690289
  21.2731630  33.3031839  24.0079383  15.9211059  39.6034523  15.8093088
  16.8238305  39.6358133  16.1259583  15.6948429  38.6734974  15.8239423
  17.6764661  38.3565510  12.4703166  16.7260292  38.3567371  12.3567539
  17.9797147  37.6098244  11.9539201  13.5668977  22.5624192  22.7286528
  14.4300439  22.2060997  22.9389852  12.9934388  22.2238086  23.4161932
  33.4117354  44.1926048  13.5348929  34.0495764  44.0732795  12.8312269
  33.2938197  45.1406892  13.5936881  30.2207060  44.1453476  13.4710453
  29.8825572  44.0294541  12.5830988  31.0896829  43.7444641  13.4511459
  26.0793876  45.9988953   9.4607344  25.5158741  45.9078889   8.6923632
  25.9646271  45.1788857   9.9409837  30.7026843  45.2988328  19.4296659
  30.6915484  44.9041126  18.5577163  30.8647483  44.5654400  20.0230430
  23.6258308  47.4940144  12.2991565  24.4179600  47.1530969  11.8837864
  23.8654958  47.6035119  13.2193718  31.6593435  49.6659920   4.7721809
  31.0081415  50.2514001   4.3855823  32.4537798  50.1966115   4.8316847
  25.5849062  46.7549057   5.1708944  26.3579938  46.2078044   5.0321819
  25.9374461  47.6193307   5.3823405  27.4234105  48.0825440  18.3775843
  27.1323971  48.9871070  18.2622509  28.0591089  48.1241967  19.0919912
  28.3490311  45.4602288  14.9677203  28.9453884  45.2358311  14.2534165
  28.4065283  44.7187034  15.5702650  32.9658623  41.9177502  10.6102137
  33.7521712  41.4996925  10.2592554  33.2297327  42.8223594  10.7783785
  33.1368700  47.3550352   5.3090794  32.5014533  47.4284979   6.0211698
  32.8066106  47.9443951   4.6309873  38.3667050  41.8552735  11.5135115
  39.0992222  41.2851952  11.7472945  37.6106405  41.4674336  11.9541621
  27.6411629  44.8169829   5.0051768  27.5247887  44.1414733   5.6732853
  27.7513888  44.3302203   4.1883921  29.9843169  44.2779977   8.7098458
  29.6201377  43.7510598   9.4211379  30.8410285  43.8878446   8.5364943
  35.8892470  35.5674309  15.9729724  35.5575795  36.4369720  15.7490939
  35.2938083  35.2510593  16.6523754  32.3823990  47.7686855  15.3725637
  32.0824713  48.6711894  15.2641444  32.0375049  47.5019038  16.2246789
  25.8336471  44.2200652  11.4062341  24.9086968  44.0876866  11.6140033
  26.0820884  44.9994871  11.9032283  35.7821133  40.2869395  13.0523074
  34.8738011  40.2184804  12.7581835  35.7308729  40.7641340  13.8804899
  29.6037877  41.7627534   4.6906473  29.4837503  42.2084585   5.5291953
  28.9090466  42.1112851   4.1320011  23.1945282  43.8633926  12.2406130
  23.3237663  44.1168404  13.1545542  22.5142733  44.4561634  11.9210785
  27.3644769  54.5331176   8.3396604  27.2868799  55.4839001   8.4185085
  26.7606413  54.1877048   8.9971531  29.8561999  41.7059041  20.9957971
  29.0795333  42.2652961  20.9860836  30.4952562  42.1915824  21.5172841
  37.6482780  38.4885834  14.8300948  37.0057160  38.7818367  14.1840742
  37.1437708  38.3738754  15.6354144  35.3022943  42.2349007   5.5186807
  36.2140800  42.4676394   5.3434505  34.7932591  42.8186051   4.9561886
  28.1108372  44.5144494  20.5575938  28.8523056  45.0529538  20.2810762
  27.4045357  45.1410783  20.7147490  33.5863711  46.6573635  19.1548100
  33.9947067  46.2156045  18.4102732  32.8640973  46.0826262  19.4082293
  29.9394781  41.5946242  16.5281657  30.7855976  42.0185655  16.6716306
  29.8793419  40.9379866  17.2220220  33.9092526  47.2174825  12.9100389
  33.2801388  47.3820540  12.2076456  33.5218188  47.6316435  13.6811353
  37.7881758  48.1529263  10.2644752  37.1032796  48.5328165   9.7141786
  37.8725607  48.7624590  10.9976700  33.0894227  39.2550610  18.1862830
  32.8455158  40.0092670  17.6497106  33.3654157  39.6335957  19.0210077
  35.0432689  45.7989222  16.8640096  35.2549585  46.4420982  16.1874477
  34.9962438  44.9651539  16.3962026  32.6458918  38.4107043  13.7676668
  31.7843397  38.7088296  14.0593406  32.6721353  38.6277442  12.8357701
  29.4620488  46.9549233  10.1750474  29.9258833  47.2336936   9.3855096
  29.1977286  46.0532678   9.9923564  26.3544569  46.5020715  13.1130237
  26.9245926  46.9307983  12.4747721  26.9452681  46.2203300  13.8114423
  28.3989374  43.0772386   6.9840039  29.1013417  43.5293430   7.4513965
  28.0670002  42.4356205   7.6119932  26.8469735  41.6684142  21.3591248
  26.2168396  42.3500423  21.5926645  26.7405823  41.5567224  20.4144386
  22.1414708  41.3355938  12.2857172  21.3513762  41.5913467  11.8097283
  22.6325955  42.1504276  12.3909213  36.1578517  48.6761178  15.0362453
  36.9795961  48.2741365  14.7545135  36.1540920  48.5729412  15.9878569
  24.0929453  41.7000518   9.2440649  23.2960616  41.8119212   9.7624145
  23.8655045  42.0387170   8.3781540  29.9235121  48.2245221  17.1923164
  29.9879553  48.6865628  18.0281335  29.2146045  47.5942586  17.3205473
  20.4252411  41.5886429  14.7172163  20.6760449  42.4733439  14.9829739
  20.9611959  41.4091030  13.9447255  44.2484510  45.0199926  11.3847425
  43.4948219  44.4507324  11.2291429  44.3832051  44.9862591  12.3318059
  29.6383138  49.8913328   7.0602144  29.5028813  50.7364864   7.4886992
  30.1792951  50.0932606   6.2968078  26.1250478  35.9704908  23.7216499
  25.7317424  35.4171107  24.3964143  26.9416618  36.2815487  24.1123017
  23.0912536  47.4088766   7.6330069  23.6037056  48.2032017   7.7835634
  23.7435249  46.7115057   7.5663671  24.9007420  50.5254523   9.7152822
  25.0774049  51.4472487   9.5273806  25.6964254  50.2112942  10.1447202
  29.0418439  37.3862787  21.3136756  29.7828152  37.9869941  21.2341218
  29.2736362  36.6440425  20.7554798  24.1859777  42.5719155  19.5914985
  24.0713292  41.6704412  19.8922084  23.3304295  42.8182851  19.2399802
  31.2651615  50.5136895  21.1902486  30.8215469  49.7273274  20.8723391
  31.9268828  50.7016045  20.5246377  26.0238736  52.0432697  15.7163165
  26.5746161  51.9149760  14.9440159  25.1850212  52.3427586  15.3658057
  33.3632853  50.7939695  19.2183887  33.3451328  51.6148576  18.7264156
  34.2852773  50.6693770  19.4434028  29.8205907  48.3083824  20.0607396
  30.3534244  47.5472113  19.8306704  29.2919988  48.0157476  20.8031550
  32.9875602  33.4143890  15.5901037  32.6439871  34.3045532  15.5140148
  33.3554565  33.2245548  14.7270622  21.0561453  45.7377421   8.4089640
  21.8936675  46.1474429   8.1923347  21.2339720  44.7976863   8.3789833
  32.9525885  43.4052501   4.0973473  32.4372508  44.1757106   4.3361860
  32.6803193  42.7317638   4.7206534  30.5372996  38.2502202   9.1558711
  29.6814592  37.8609053   8.9764350  30.9499947  38.3294163   8.2958496
  32.0672142  35.7848546  13.5550271  31.5636938  35.7478681  12.7418076
  32.3602749  36.6941288  13.6146927  28.3115028  35.8687275  12.5616452
  29.1768025  35.6730084  12.2022342  28.3792537  35.6397627  13.4885809
  37.9260159  46.1584856   6.0326646  37.1489602  45.8196016   5.5881808
  38.6051640  46.1637479   5.3581611  32.7412188  41.2779594   5.9233254
  32.4362323  41.5925743   6.7743397  33.6942630  41.3561013   5.9660587
  31.1858620  47.4369817   7.5726208  30.6579981  46.7022576   7.2599445
  30.6846122  48.2144493   7.3266176  36.1651466  45.6318837  12.6893254
  35.5075140  46.3218099  12.7773383  36.9691865  46.0215269  13.0327240
  25.9177347  38.0989483   9.9332819  26.4921099  37.8764665   9.2006012
  26.5048330  38.1678178  10.6861421  34.9756924  43.9863210  10.7397196
  35.4888806  44.6193202  11.2418905  35.6258148  43.3864406  10.3740556
  32.2379299  53.9647534   3.4957867  31.5640997  54.2679231   4.1042825
  32.6245121  54.7676615   3.1463324  31.4537755  41.4612666  12.9855536
  30.5360317  41.6827613  12.8277224  31.8697899  41.5358976  12.1267244
  32.2372803  42.8604081   8.1158217  32.9844622  43.3725478   7.8065339
  32.5064393  42.5388134   8.9762610  30.5099453  45.3562622   5.0985171
  29.6010673  45.0721655   5.1957641  30.5394537  45.7761701   4.2388478
  35.7418721  48.9669211   8.8676338  35.2881048  48.1260121   8.9241529
  35.1112687  49.6030610   9.2051119  34.6851640  39.8961198  10.0977006
  33.9474397  39.3838584  10.4287248  34.9378414  39.4561579   9.2860283
  34.1851660  50.8045708   9.8026157  34.4774634  51.3650765   9.0838522
  34.6950280  51.0974269  10.5579316  34.7863268  32.6737450  10.6918775
  35.0922144  31.8134813  10.4044690  35.5115872  33.2655070  10.4917769
  21.0787624  43.0768136   9.0800373  20.8812023  42.4837497   8.3551440
  20.5234288  42.7720346   9.7976312  29.0584347  42.9691243  11.1994966
  29.1132957  42.0165079  11.1237443  28.2475549  43.1250682  11.6836265
  30.2075541  46.8971366   2.4373249  29.7694971  46.1807225   1.9778887
  30.9485982  47.1247480   1.8758341  26.9976707  41.5868302   8.9585345
  26.1844573  41.8862473   9.3650537  27.4935701  41.1923991   9.6759827
  29.1485285  51.5826059  10.8919610  29.1061464  51.8086906   9.9628142
  30.0647984  51.3489434  11.0405411  32.5950919  42.0510127  17.7900239
  32.9500307  42.2781600  18.6494705  33.2423050  42.3828504  17.1677494
  38.3248656  45.1728563   8.4949568  38.1866554  45.3630159   7.5670757
  37.9684875  45.9347946   8.9517619  26.4890782  39.1586658  14.5746580
  27.1290161  39.0175417  13.8769543  25.6568313  38.8721171  14.1985182
  38.3518035  47.2405090  13.5060839  38.7854542  47.1480379  14.3543894
  39.0649616  47.2162590  12.8680855  27.2651086  48.4589088  10.6881572
  28.0591684  47.9639408  10.4864147  26.5542778  47.9306951  10.3249278
  32.0845930  50.8407184  15.0393940  32.1382953  51.4098120  15.8071656
  31.2160712  51.0109069  14.6747977  23.4919398  39.1286983   9.3519567
  23.7526216  40.0432316   9.2428727  24.3136571  38.6611425   9.5016180
  24.9644324  40.5424740  16.5218391  25.6367377  40.3342102  15.8731040
  24.1374110  40.3446826  16.0823624  39.2133585  47.2828790  16.0393725
  39.4069475  48.1874601  16.2853000  39.1134203  46.8236209  16.8732310
  30.8669896  37.1686681  18.5384052  30.2197811  37.8676631  18.4448529
  31.6370911  37.6022825  18.9060300  34.2748694  47.4335533  21.6134605
  34.1234200  47.2046085  20.6964689  34.2653373  48.3906135  21.6265951
  31.0434030  45.0067446  16.5980872  31.9726090  45.1578605  16.4249839
  30.6225060  45.0951467  15.7429518  29.8422362  49.0318110  14.3679410
  29.7033448  48.6636895  15.2405348  29.0536958  49.5465750  14.1963367
  30.4370514  54.1327207   5.7104946  30.6122270  53.6615250   6.5250569
  29.7503302  54.7592973   5.9386207  31.3927577  48.4099713  11.7568247
  31.0577410  48.3700483  12.6525897  30.8931523  47.7444429  11.2838658
  25.3671821  43.8167343  17.2820829  25.2291619  43.0847582  17.8832368
  26.2776744  43.7276243  17.0005016  34.3286769  45.7555747   2.0305307
  33.7115939  45.0302575   1.9338360  33.8603257  46.5165108   1.6872381
  27.9954122  43.5287302  16.7704508  28.7053740  42.8880495  16.7291127
  27.9523430  43.7800197  17.6930689  35.9840900  50.4654656  19.6911087
  35.9253446  49.7813876  19.0241670  36.3860419  51.2073646  19.2391713
  26.7083056  40.5152520  18.5900148  26.1720413  40.0643259  19.2421744
  26.1199764  40.6498429  17.8470612  25.0031599  57.2816570  12.4844806
  25.2428197  57.9135094  13.1623825  24.1600796  56.9304610  12.7710166
  35.9858308  48.4294240  17.9225067  35.0985086  48.0920161  18.0451466
  36.5556859  47.6977271  18.1593832  17.6387455  44.7618331  11.2468118
  18.3258495  44.4480061  10.6589134  17.4835583  45.6659696  10.9735370
  22.4422177  39.6508528  15.6753142  22.3580366  39.0434197  14.9403552
  21.6204883  40.1417546  15.6762638  29.5159461  53.0895692  14.8886310
  29.4429632  53.8950663  15.4005615  29.0736854  53.2887658  14.0634332
  29.3049241  52.3267462   8.3989132  28.5216763  52.8689142   8.4927356
  30.0041986  52.8441442   8.7983373  32.6145891  38.1362091  11.0423337
  33.1114590  37.3832054  10.7224407  31.8432872  38.1726408  10.4766546
  40.4675648  43.8402457  12.6841629  40.4565524  44.7227172  12.3135562
  39.5993028  43.4874008  12.4896166  31.9758145  52.9882526  17.0444469
  32.6886117  53.6229991  16.9720370  31.4848173  53.0846392  16.2284471
  33.6975671  46.8933779   8.6161761  32.7631950  47.0135241   8.4466465
  33.8752340  45.9906245   8.3521770  29.1980859  40.2779474  10.7695022
  28.8278647  39.7250515  11.4575927  29.6939952  39.6737608  10.2170022
  37.0848223  42.7351098   9.1511795  37.5508675  43.5679090   9.0772097
  37.5355723  42.2696080   9.8557053  27.0270058  50.7376969  17.8650040
  27.7279518  51.3713452  18.0179434  26.5565173  51.0791701  17.1045679
  35.1524454  49.0794919   6.1497947  35.4284298  48.9651514   7.0591821
  34.2828953  48.6812404   6.1110120  35.0564886  35.1031685  13.1902696
  34.1427965  35.3335912  13.3584903  35.4857987  35.1870129  14.0416728
  34.8271344  43.2921577  15.6902590  34.1742794  43.5397484  15.0355043
  35.2051724  42.4785715  15.3565067  31.7878518  53.3281270   9.7930760
  31.9700912  52.5102926  10.2558513  32.6111504  53.5448962   9.3555650
  32.1220683  52.2549455   7.0545809  32.6508450  51.7441910   6.4415971
  32.3848903  51.9391985   7.9191342  30.8758917  44.0341388  22.1768627
  30.1999554  43.9335517  22.8471002  31.6986551  43.8780602  22.6404624
  22.6237776  50.2713324  14.7981142  23.2091213  49.5257012  14.9309047
  22.4262615  50.5817281  15.6817806  25.4776431  53.3064572   9.8143585
  24.8086807  53.7910700   9.3307625  25.3389301  53.5533792  10.7286963
  17.2155431  42.8418925  13.5185586  17.2539530  42.3082515  14.3122704
  16.7095724  42.3154130  12.8996563  29.6181700  55.3408315  16.4126243
  30.1700008  55.5039937  17.1775328  29.9587893  55.9312753  15.7406268
  24.5946193  37.6883465  17.0148128  24.6587520  38.5498296  16.6025526
  24.5313313  37.0757467  16.2820486  24.0698466  39.7606598  20.6621162
  24.6970504  39.3783675  21.2758686  23.2126385  39.5420800  21.0276855
  34.4692574  50.1669573  22.2674898  35.0132478  50.7799531  21.7729852
  33.8879419  50.7249151  22.7841911  32.7550087  53.2890291  13.3989925
  32.6301227  52.4880031  12.8900871  33.4129178  53.7836484  12.9103895
  24.3758255  39.6439023  12.5767066  23.6544841  40.2574991  12.4374539
  25.1651511  40.1796788  12.4983711  34.8184996  51.0899311  15.0269475
  33.8715331  50.9704662  14.9547802  35.1667769  50.2021809  15.1095737
  27.1784569  36.9793450  18.8507717  27.7018971  37.2255746  19.6134027
  26.9596902  37.8113485  18.4310855  31.8231429  50.8852027  11.2273828
  31.6756391  49.9568735  11.4081398  32.6484922  50.9072118  10.7430903
  25.6893673  39.5370094   7.0854320  26.0289746  40.0656016   6.3632928
  26.1365794  39.8750500   7.8612886  35.4265551  51.7080586  12.3138700
  36.3512098  51.5023447  12.1763152  35.2580854  51.4596987  13.2228042
  28.3837114  37.9207145  16.5357388  28.0433934  37.1214958  16.9378068
  27.6776120  38.2208856  15.9634221  29.0353586  35.0056457  14.9884711
  29.8579655  34.5316936  14.8663601  29.2791649  35.7846941  15.4883397
  31.8192943  38.7389865   6.2205945  32.0356558  39.6214503   5.9194773
  31.3387010  38.3476078   5.4911587  26.5592165  41.6975578  12.7976689
  26.4136745  42.0115881  13.6900971  26.0817368  42.3160478  12.2447588
  28.4188547  38.6878126  12.8457579  28.4050116  37.7919219  12.5089877
  29.1360976  38.6948790  13.4795865  30.2714678  39.1215466  14.8910706
  30.0132456  40.0432537  14.8895037  29.7399719  38.7245901  15.5811171
  35.2160867  52.2266253   7.6700792  35.3897744  51.6612676   6.9174644
  35.7089758  53.0267148   7.4880282  21.0337827  44.2380922  15.7364351
  20.4891295  45.0140730  15.8684625  21.9117177  44.5851727  15.5783472
  27.8225443  37.5692506   8.1145149  27.9441355  36.6409153   8.3136037
  27.5327486  37.5831192   7.2023465  30.6916634  35.2547417  11.2511869
  30.7138331  35.3186750  10.2963849  31.1084693  34.4151925  11.4452375
  41.0700258  44.9902676   9.2891092  41.5131404  44.2410002   8.8910215
  40.1926768  44.9812813   8.9064824  36.2036039  51.5433018   4.7697690
  36.8986944  52.1639710   4.9885005  36.5459190  50.6928369   5.0450068
  21.8203849  43.3650819  18.6294507  21.0785585  43.5133454  19.2159138
  21.4996593  43.6259084  17.7661257  38.1027463  48.9932723   6.2985021
  38.6278787  49.3319996   5.5734341  38.0149815  48.0579739   6.1148156
  29.7647511  52.9066797  18.4274898  30.0734638  52.6615944  19.2997597
  30.5622993  53.1113435  17.9393768  29.7868123  55.0604707  10.6580274
  29.3473114  54.5681085  11.3513131  30.5376240  54.5177674  10.4172349
  22.2660462  51.2516247  10.6604902  23.0918482  50.9520019  10.2803546
  21.9154514  50.4823870  11.1094691  27.2341995  50.6042716  12.7302576
  26.6122005  49.9413421  12.4304804  27.9046862  50.6303848  12.0476224
  20.4669067  49.1702574  11.6193836  19.6300976  48.7424748  11.4377837
  20.4392713  49.3635017  12.5564627  27.3066523  39.0824504  22.3235082
  27.3554678  39.9586627  21.9412851  27.8489037  38.5401897  21.7506725
  37.7921369  49.6265627  21.6036219  37.0016912  49.6089766  21.0640718
  37.5554723  50.1653921  22.3585255  37.9119244  46.4758093  18.9168947
  37.9617249  46.3108101  19.8584470  37.8033167  45.6085352  18.5266828
  26.7955502  49.1546639   6.2061036  26.9443623  49.8382103   5.5527709
  27.6021946  49.1351729   6.7210492  35.2023006  42.4589021  20.2328254
  36.1032869  42.3195486  19.9412252  35.2770981  42.6243476  21.1726432
  29.5365811  39.8355876  19.0781440  28.6669121  40.1289442  18.8064029
  29.7725292  40.4196321  19.7988704  39.4137440  48.8955035  19.1610969
  39.1222249  49.2585015  19.9974430  38.8009572  48.1822043  18.9824301
  40.6133123  46.4607915  11.6813539  41.4480014  46.8997719  11.8451100
  40.7492252  45.9846568  10.8621785  37.6624629  44.0187649  17.6291027
  38.1378750  44.2115296  16.8209878  36.7390194  44.0746835  17.3834411
  24.5508135  45.1811817   7.2122105  24.3054177  44.2774147   7.4102315
  24.7204050  45.1828967   6.2701583  32.2404845  36.0535493  16.5946861
  32.7586789  36.7896520  16.2693349  31.8859978  36.3599486  17.4293620
  32.4917439  32.4735776  12.1147757  32.7719193  31.8058965  12.7408184
  33.2768046  32.6664871  11.6022421  30.2950908  51.6494769   3.6772784
  29.7224875  52.2684957   3.2243256  30.8683702  52.1994131   4.2112706
  36.3626298  40.8953410  15.8619333  37.3143721  40.9951507  15.8831557
  36.1929748  40.1031678  16.3717417  34.3840677  37.9808993  16.0478733
  33.7890609  38.2614006  15.3525222  34.0990374  38.4702894  16.8195475
  33.5148168  51.9331920   4.8081366  34.4478841  51.8677481   5.0114241
  33.4271380  52.7688186   4.3495899  36.1436184  51.2497790   1.7685314
  36.0649816  50.9157654   2.6621071  36.9645851  51.7419558   1.7676786
  38.8414376  44.1159529  14.9761632  38.8090696  43.1775530  15.1621316
  39.4514999  44.1943566  14.2427457  38.9908864  40.9070573  15.0219915
  38.4747913  40.1229029  14.8349844  39.8748813  40.5789289  15.1866435
  36.6519591  34.6511588  10.9815728  36.4544412  34.3426676  11.8659060
  37.2619297  35.3773227  11.1113658  44.6590925  45.1775536  14.1167669
  45.3894314  44.9160824  14.6775372  44.0497871  44.4404258  14.1569737
  42.7406222  43.3183399  14.7142120  42.0139386  43.1839364  14.1058612
  42.3253509  43.6260227  15.5198838  30.5636399  47.0373328  22.4789493
  31.4839408  47.2151927  22.6729540  30.5285982  46.0929374  22.3269192
  19.7818564  42.2311922  11.4042768  19.4621348  41.3777230  11.1117142
  19.2351992  42.4460500  12.1600735  23.5598471  44.9474363  15.1212274
  23.7784481  45.8791471  15.1400308  23.9724245  44.5882337  15.9067078
  32.4093238  34.5320495   8.7312259  32.9624276  34.9515949   9.3902282
  32.6463324  33.6056243   8.7735215  28.4326337  40.5207569  24.5115023
  28.3323064  41.4701926  24.4427114  28.2147879  40.1925808  23.6391093
  19.6506824  45.8514834  13.3735889  18.9570295  45.4368786  12.8605844
  20.3979815  45.8935370  12.7769308  35.7872045  36.6421020   8.2390924
  35.2070714  37.3005824   7.8568976  35.5207977  35.8198365   7.8278341
  34.2375611  36.0426078  10.4412244  34.7375389  36.1542613   9.6326563
  34.8811219  35.7387131  11.0813052  28.2957607  43.9504708  23.3280085
  27.8124689  44.7505068  23.5343974  28.3818546  43.9612653  22.3747529
  21.5643566  45.7833087  11.2501904  21.5414255  45.8820775  10.2983787
  21.8744203  46.6298238  11.5719070  24.2230944  47.8409242  15.3648519
  25.1774198  47.8093185  15.2978450  24.0243468  47.3799866  16.1798745
  24.8130326  46.4110358  17.9319316  25.6323215  46.9054437  17.9554154
  25.0867134  45.4942327  17.9036884  34.5696923  38.8021111   7.2947272
  33.6822778  39.0870761   7.0767467  34.9850912  38.6414874   6.4474549
  37.9211459  38.8267632  11.0101611  38.6971849  39.3164084  11.2826228
  37.1959593  39.2525686  11.4673481  40.3584017  39.5395251  12.0675552
  40.9528508  39.2990987  11.3568860  40.4310601  38.8202381  12.6949088
  22.5781173  53.3828862  12.3818717  22.4435641  52.6229263  11.8156715
  22.1613235  54.1069762  11.9147505  33.7140136  48.5665785   1.3895292
  34.4175986  48.7715788   2.0052947  32.9902785  49.1342547   1.6544375
  34.5437946  44.3175647   7.5097562  34.4873148  44.7744198   6.6705194
  35.0966289  43.5566331   7.3320405  38.3542752  40.1065379   8.3347682
  38.0979687  39.7062014   9.1655889  37.7295620  40.8209172   8.2097821
  42.6655090  42.8461452  10.8418973  42.1054648  42.9154641  11.6150535
  42.0598594  42.6702436  10.1218469  25.7350299  54.2798179  12.5937159
  25.6182683  55.2243611  12.4915849  24.9142745  53.9771740  12.9822958
  35.6226834  49.0048315   3.4393752  36.4572437  48.5729513   3.2571227
  35.4611176  48.8330328   4.3670646  35.2772726  45.5080428   4.8050091
  35.2221529  45.3424699   3.8638535  34.6518781  46.2156461   4.9612281
  20.0665241  40.7448492  18.6311513  20.7124104  40.2347446  19.1198739
  19.8582392  41.4817174  19.2054939  32.5918633  47.8129340  24.1303654
  33.4609793  47.9869992  23.7690289  32.1125384  48.6323757  24.0079383
  26.7604813  54.9326441  15.8093088  27.6632060  54.9650051  16.1259583
  26.5342183  54.0026892  15.8239423  28.5158415  53.6857427  12.4703166
  27.5654046  53.6859289  12.3567539  28.8190901  52.9390162  11.9539201
  24.4062732  37.8916109  22.7286528  25.2694193  37.5352914  22.9389852
  23.8328142  37.5530004  23.4161932  44.2511109  59.5217966  13.5348929
  44.8889519  59.4024713  12.8312269  44.1331952  60.4698810  13.5936881
  41.0600815  59.4745394  13.4710453  40.7219326  59.3586458  12.5830988
  41.9290583  59.0736559  13.4511459  36.9187631  61.3280870   9.4607344
  36.3552496  61.2370807   8.6923632  36.8040026  60.5080775   9.9409837
  41.5420598  60.6280246  19.4296659  41.5309239  60.2333044  18.5577163
  41.7041237  59.8946318  20.0230430  34.4652063  62.8232062  12.2991565
  35.2573354  62.4822886  11.8837864  34.7048713  62.9327037  13.2193718
  42.4987189  64.9951838   4.7721809  41.8475169  65.5805918   4.3855823
  43.2931552  65.5258033   4.8316847  36.4242816  62.0840975   5.1708944
  37.1973692  61.5369962   5.0321819  36.7768215  62.9485224   5.3823405
  38.2627859  63.4117357  18.3775843  37.9717725  64.3162988  18.2622509
  38.8984843  63.4533885  19.0919912  39.1884066  60.7894206  14.9677203
  39.7847638  60.5650228  14.2534165  39.2459037  60.0478951  15.5702650
  38.7609094  58.2433641   2.8027393  39.0134615  57.7215162   2.0410856
  37.8233653  58.0799787   2.9054077  43.8052377  57.2469420  10.6102137
  44.5915466  56.8288843  10.2592554  44.0691081  58.1515512  10.7783785
  43.9762454  62.6842270   5.3090794  43.3408287  62.7576896   6.0211698
  43.6459861  63.2735869   4.6309873  49.2060804  57.1844653  11.5135115
  49.9385976  56.6143870  11.7472945  48.4500160  56.7966253  11.9541621
  38.4805383  60.1461747   5.0051768  38.3641641  59.4706651   5.6732853
  38.5907643  59.6594121   4.1883921  40.8236924  59.6071894   8.7098458
  40.4595131  59.0802515   9.4211379  41.6804040  59.2170363   8.5364943
  46.7286225  50.8966227  15.9729724  46.3969549  51.7661638  15.7490939
  46.1331838  50.5802511  16.6523754  40.4642411  54.6361794   3.7059806
  40.6316813  55.5042030   4.0730277  40.2739580  54.7989076   2.7821095
  43.2217744  63.0978773  15.3725637  42.9218467  64.0003812  15.2641444
  42.8768804  62.8310956  16.2246789  36.6730226  59.5492570  11.4062341
  35.7480722  59.4168784  11.6140033  36.9214639  60.3286789  11.9032283
  46.6214888  55.6161313  13.0523074  45.7131765  55.5476721  12.7581835
  46.5702484  56.0933258  13.8804899  40.4431632  57.0919451   4.6906473
  40.3231257  57.5376502   5.5291953  39.7484220  57.4404769   4.1320011
  34.0339037  59.1925843  12.2406130  34.1631418  59.4460322  13.1545542
  33.3536488  59.7853551  11.9210785  38.2038524  69.8623093   8.3396604
  38.1262554  70.8130918   8.4185085  37.6000168  69.5168966   8.9971531
  40.6955754  57.0350959  20.9957971  39.9189088  57.5944879  20.9860836
  41.3346317  57.5207742  21.5172841  48.4876534  53.8177751  14.8300948
  47.8450915  54.1110285  14.1840742  47.9831463  53.7030672  15.6354144
  46.1416698  57.5640925   5.5186807  47.0534554  57.7968311   5.3434505
  45.6326345  58.1477969   4.9561886  38.9502126  59.8436412  20.5575938
  39.6916810  60.3821456  20.2810762  38.2439111  60.4702701  20.7147490
  44.4257466  61.9865552  19.1548100  44.8340822  61.5447963  18.4102732
  43.7034727  61.4118180  19.4082293  40.7788536  56.9238159  16.5281657
  41.6249731  57.3477573  16.6716306  40.7187173  56.2671784  17.2220220
  44.7486280  62.5466743  12.9100389  44.1195143  62.7112457  12.2076456
  44.3611942  62.9608353  13.6811353  48.6275512  63.4821181  10.2644752
  47.9426550  63.8620082   9.7141786  48.7119361  64.0916508  10.9976700
  43.9287981  54.5842528  18.1862830  43.6848913  55.3384588  17.6497106
  44.2047912  54.9627875  19.0210077  45.8826444  61.1281140  16.8640096
  46.0943339  61.7712900  16.1874477  45.8356192  60.2943456  16.3962026
  43.4852673  53.7398961  13.7676668  42.6237152  54.0380214  14.0593406
  43.5115107  53.9569359  12.8357701  40.3014242  62.2841151  10.1750474
  40.7652588  62.5628854   9.3855096  40.0371040  61.3824596   9.9923564
  37.1938323  61.8312633  13.1130237  37.7639680  62.2599901  12.4747721
  37.7846435  61.5495217  13.8114423  39.2383128  58.4064304   6.9840039
  39.9407172  58.8585347   7.4513965  38.9063757  57.7648122   7.6119932
  37.6863490  56.9976060  21.3591248  37.0562150  57.6792341  21.5926645
  37.5799578  56.8859142  20.4144386  32.9808462  56.6647856  12.2857172
  32.1907516  56.9205385  11.8097283  33.4719710  57.4796194  12.3909213
  46.9972272  64.0053095  15.0362453  47.8189715  63.6033283  14.7545135
  46.9934675  63.9021330  15.9878569  34.9323208  57.0292435   9.2440649
  34.1354371  57.1411130   9.7624145  34.7048800  57.3679088   8.3781540
  40.7628875  63.5537139  17.1923164  40.8273308  64.0157546  18.0281335
  40.0539799  62.9234504  17.3205473  31.2646165  56.9178347  14.7172163
  31.5154204  57.8025357  14.9829739  31.8005714  56.7382948  13.9447255
  55.0878265  60.3491844  11.3847425  54.3341973  59.7799242  11.2291429
  55.2225806  60.3154508  12.3318059  40.4776893  65.2205246   7.0602144
  40.3422568  66.0656782   7.4886992  41.0186705  65.4224524   6.2968078
  36.9644232  51.2996826  23.7216499  36.5711178  50.7463025  24.3964143
  37.7810373  51.6107404  24.1123017  33.9306290  62.7380684   7.6330069
  34.4430811  63.5323934   7.7835634  34.5829003  62.0406975   7.5663671
  35.7401175  65.8546440   9.7152822  35.9167803  66.7764405   9.5273806
  36.5358008  65.5404860  10.1447202  39.8812193  52.7154705  21.3136756
  40.6221907  53.3161858  21.2341218  40.1130116  51.9732343  20.7554798
  35.0253531  57.9011072  19.5914985  34.9107047  56.9996330  19.8922084
  34.1698049  58.1474769  19.2399802  42.1045369  65.8428813  21.1902486
  41.6609223  65.0565191  20.8723391  42.7662583  66.0307963  20.5246377
  36.8632490  67.3724614  15.7163165  37.4139916  67.2441678  14.9440159
  36.0243966  67.6719503  15.3658057  44.2026607  66.1231613  19.2183887
  44.1845083  66.9440494  18.7264156  45.1246527  65.9985688  19.4434028
  40.6599661  63.6375742  20.0607396  41.1927998  62.8764030  19.8306704
  40.1313743  63.3449394  20.8031550  43.8269356  48.7435808  15.5901037
  43.4833626  49.6337450  15.5140148  44.1948319  48.5537466  14.7270622
  31.8955207  61.0669338   8.4089640  32.7330429  61.4766347   8.1923347
  32.0733475  60.1268781   8.3789833  43.7919639  58.7344419   4.0973473
  43.2766263  59.5049024   4.3361860  43.5196948  58.0609555   4.7206534
  41.3766750  53.5794120   9.1558711  40.5208346  53.1900970   8.9764350
  41.7893702  53.6586081   8.2958496  42.9065897  51.1140463  13.5550271
  42.4030692  51.0770598  12.7418076  43.1996504  52.0233206  13.6146927
  39.1508783  51.1979193  12.5616452  40.0161779  51.0022002  12.2022342
  39.2186292  50.9689545  13.4885809  48.7653913  61.4876774   6.0326646
  47.9883356  61.1487933   5.5881808  49.4445394  61.4929397   5.3581611
  43.5805942  56.6071511   5.9233254  43.2756078  56.9217660   6.7743397
  44.5336384  56.6852931   5.9660587  42.0252374  62.7661735   7.5726208
  41.4973736  62.0314494   7.2599445  41.5239877  63.5436411   7.3266176
  47.0045220  60.9610755  12.6893254  46.3468895  61.6510016  12.7773383
  47.8085619  61.3507187  13.0327240  36.7571102  53.4281401   9.9332819
  37.3314854  53.2056582   9.2006012  37.3442084  53.4970095  10.6861421
  45.8150679  59.3155128  10.7397196  46.3282561  59.9485120  11.2418905
  46.4651903  58.7156323  10.3740556  37.0840689  55.4585862   3.9528704
  36.2478001  55.7960548   4.2737979  36.9445459  55.3234842   3.0155841
  39.0593769  50.3022650   8.6607889  38.4058182  49.9871667   8.0364503
  39.0174244  49.6798390   9.3867712  40.1704974  60.5841945   0.5761181
  39.2632036  60.3531198   0.7752330  40.6676006  59.7879564   0.7635162
  43.0773053  69.2939452   3.4957867  42.4034752  69.5971149   4.1042825
  43.4638875  70.0968532   3.1463324  42.2931510  56.7904583  12.9855536
  41.3754071  57.0119530  12.8277224  42.7091653  56.8650894  12.1267244
  43.0766558  58.1895999   8.1158217  43.8238377  58.7017396   7.8065339
  43.3458147  57.8680052   8.9762610  41.3493208  60.6854540   5.0985171
  40.4404427  60.4013572   5.1957641  41.3788292  61.1053618   4.2388478
  46.5812475  64.2961129   8.8676338  46.1274802  63.4552039   8.9241529
  45.9506442  64.9322528   9.2051119  45.5245395  55.2253115  10.0977006
  44.7868152  54.7130501  10.4287248  45.7772168  54.7853497   9.2860283
  45.0245414  66.1337626   9.8026157  45.3168389  66.6942683   9.0838522
  45.5344035  66.4266187  10.5579316  45.6257022  48.0029367  10.6918775
  45.9315899  47.1426731  10.4044690  46.3509627  48.5946987  10.4917769
  31.9181378  58.4060054   9.0800373  31.7205778  57.8129415   8.3551440
  31.3628042  58.1012264   9.7976312  39.8978102  58.2983160  11.1994966
  39.9526712  57.3456997  11.1237443  39.0869304  58.4542599  11.6836265
  41.0469296  62.2263283   2.4373249  40.6088725  61.5099142   1.9778887
  41.7879736  62.4539398   1.8758341  37.8370462  56.9160220   8.9585345
  37.0238327  57.2154391   9.3650537  38.3329456  56.5215909   9.6759827
  39.9879040  66.9117977  10.8919610  39.9455218  67.1378823   9.9628142
  40.9041738  66.6781352  11.0405411  43.4344673  57.3802044  17.7900239
  43.7894061  57.6073518  18.6494705  44.0816805  57.7120421  17.1677494
  49.1642410  60.5020480   8.4949568  49.0260309  60.6922076   7.5670757
  48.8078629  61.2639863   8.9517619  37.3284536  54.4878576  14.5746580
  37.9683916  54.3467335  13.8769543  36.4962067  54.2013089  14.1985182
  49.1911790  62.5697007  13.5060839  49.6248297  62.4772296  14.3543894
  49.9043371  62.5454508  12.8680855  38.1044840  63.7881006  10.6881572
  38.8985439  63.2931326  10.4864147  37.3936533  63.2598869  10.3249278
  42.9239685  66.1699101  15.0393940  42.9776707  66.7390038  15.8071656
  42.0554466  66.3400987  14.6747977  34.4127604  57.9324088   6.7641325
  33.4825192  57.8708543   6.9811287  34.5085076  57.4100040   5.9677966
  34.3313153  54.4578901   9.3519567  34.5919970  55.3724234   9.2428727
  35.1530325  53.9903343   9.5016180  35.8038078  55.8716658  16.5218391
  36.4761132  55.6634020  15.8731040  34.9767865  55.6738744  16.0823624
  50.0527340  62.6120708  16.0393725  50.2463230  63.5166519  16.2853000
  49.9527958  62.1528127  16.8732310  41.7063650  52.4978599  18.5384052
  41.0591565  53.1968548  18.4448529  42.4764666  52.9314743  18.9060300
  45.1142448  62.7627451  21.6134605  44.9627955  62.5338002  20.6964689
  45.1047128  63.7198052  21.6265951  41.8827785  60.3359364  16.5980872
  42.8119845  60.4870523  16.4249839  41.4618815  60.4243384  15.7429518
  40.6816116  64.3610028  14.3679410  40.5427202  63.9928812  15.2405348
  39.8930713  64.8757667  14.1963367  41.2764268  69.4619124   5.7104946
  41.4516024  68.9907168   6.5250569  40.5897056  70.0884891   5.9386207
  42.2321332  63.7391631  11.7568247  41.8971164  63.6992401  12.6525897
  41.7325277  63.0736347  11.2838658  36.2065575  59.1459261  17.2820829
  36.0685373  58.4139500  17.8832368  37.1170499  59.0568161  17.0005016
  45.1680523  61.0847665   2.0305307  44.5509694  60.3594493   1.9338360
  44.6997012  61.8457025   1.6872381  38.8347876  58.8579220  16.7704508
  39.5447495  58.2172412  16.7291127  38.7917184  59.1092115  17.6930689
  46.8234655  65.7946573  19.6911087  46.7647201  65.1105793  19.0241670
  47.2254173  66.5365563  19.2391713  37.5476810  55.8444438  18.5900148
  37.0114167  55.3935176  19.2421744  36.9593519  55.9790347  17.8470612
  35.8425354  72.6108487  12.4844806  36.0821952  73.2427011  13.1623825
  34.9994550  72.2596527  12.7710166  36.9579069  55.3033089   1.1526611
  36.0808535  55.1821890   0.7888858  37.4336822  54.5119168   0.9005500
  46.8252062  63.7586157  17.9225067  45.9378841  63.4212079  18.0451466
  47.3950613  63.0269189  18.1593832  28.4781209  60.0910249  11.2468118
  29.1652249  59.7771979  10.6589134  28.3229338  60.9951614  10.9735370
  33.2815931  54.9800446  15.6753142  33.1974120  54.3726115  14.9403552
  32.4598638  55.4709464  15.6762638  40.3553215  68.4187610  14.8886310
  40.2823387  69.2242581  15.4005615  39.9130609  68.6179575  14.0634332
  40.1442995  67.6559380   8.3989132  39.3610517  68.1981060   8.4927356
  40.8435740  68.1733359   8.7983373  43.4539645  53.4654009  11.0423337
  43.9508345  52.7123971  10.7224407  42.6826627  53.5018326  10.4766546
  51.3069403  59.1694375  12.6841629  51.2959279  60.0519090  12.3135562
  50.4386782  58.8165925  12.4896166  42.8151899  68.3174444  17.0444469
  43.5279871  68.9521908  16.9720370  42.3241928  68.4138310  16.2284471
  44.5369426  62.2225696   8.6161761  43.6025705  62.3427159   8.4466465
  44.7146094  61.3198163   8.3521770  40.0374614  55.6071392  10.7695022
  39.6672402  55.0542432  11.4575927  40.5333706  55.0029526  10.2170022
  47.9241977  58.0643016   9.1511795  48.3902429  58.8971007   9.0772097
  48.3749478  57.5987997   9.8557053  37.8663813  66.0668887  17.8650040
  38.5673272  66.7005370  18.0179434  37.3958928  66.4083619  17.1045679
  45.9918208  64.4086837   6.1497947  46.2678052  64.2943431   7.0591821
  45.1222707  64.0104322   6.1110120  45.8958640  50.4323603  13.1902696
  44.9821720  50.6627829  13.3584903  46.3251741  50.5162047  14.0416728
  45.6665099  58.6213495  15.6902590  45.0136549  58.8689402  15.0355043
  46.0445478  57.8077633  15.3565067  42.6272272  68.6573188   9.7930760
  42.8094667  67.8394844  10.2558513  43.4505258  68.8740880   9.3555650
  42.9614438  67.5841373   7.0545809  43.4902204  67.0733827   6.4415971
  43.2242657  67.2683903   7.9191342  41.7152672  59.3633306  22.1768627
  41.0393309  59.2627435  22.8471002  42.5380305  59.2072519  22.6404624
  33.4631531  65.6005242  14.7981142  34.0484967  64.8548930  14.9309047
  33.2656369  65.9109199  15.6817806  36.3170186  68.6356490   9.8143585
  35.6480561  69.1202617   9.3307625  36.1783056  68.8825710  10.7286963
  28.0549185  58.1710842  13.5185586  28.0933285  57.6374433  14.3122704
  27.5489478  57.6446048  12.8996563  40.4575454  70.6700233  16.4126243
  41.0093762  70.8331855  17.1775328  40.7981648  71.2604671  15.7406268
  35.4339948  53.0175383  17.0148128  35.4981274  53.8790214  16.6025526
  35.3707068  52.4049385  16.2820486  34.9092220  55.0898515  20.6621162
  35.5364259  54.7075593  21.2758686  34.0520139  54.8712717  21.0276855
  45.3086329  65.4961491  22.2674898  45.8526233  66.1091449  21.7729852
  44.7273174  66.0541069  22.7841911  31.6857763  56.8974945   6.5939517
  31.9811204  55.9885623   6.5406571  30.7845799  56.8762684   6.2720519
  43.5943842  68.6182209  13.3989925  43.4694981  67.8171948  12.8900871
  44.2522933  69.1128402  12.9103895  35.2152010  54.9730941  12.5767066
  34.4938596  55.5866909  12.4374539  36.0045266  55.5088706  12.4983711
  45.6578750  66.4191229  15.0269475  44.7109086  66.2996580  14.9547802
  46.0061523  65.5313727  15.1095737  38.0178323  52.3085368  18.8507717
  38.5412725  52.5547664  19.6134027  37.7990657  53.1405402  18.4310855
  33.4145605  54.5789042   6.7178842  33.0858311  53.6986421   6.5353948
  33.7684975  54.5236711   7.6055231  42.6625183  66.2143945  11.2273828
  42.5150146  65.2860652  11.4081398  43.4878677  66.2364036  10.7430903
  36.5287428  54.8662012   7.0854320  36.8683500  55.3947933   6.3632928
  36.9759548  55.2042418   7.8612886  46.2659305  67.0372504  12.3138700
  47.1905853  66.8315365  12.1763152  46.0974609  66.7888905  13.2228042
  39.2230868  53.2499063  16.5357388  38.8827689  52.4506876  16.9378068
  38.5169875  53.5500774  15.9634221  39.8747340  50.3348375  14.9884711
  40.6973410  49.8608853  14.8663601  40.1185404  51.1138859  15.4883397
  38.5155575  53.3636634   5.2847613  39.2363937  53.7417886   4.7811329
  37.8920879  54.0825510   5.3882590  42.6586698  54.0681783   6.2205945
  42.8750312  54.9506420   5.9194773  42.1780765  53.6767996   5.4911587
  37.3985919  57.0267496  12.7976689  37.2530500  57.3407799  13.6900971
  36.9211123  57.6452396  12.2447588  39.2582302  54.0170044  12.8457579
  39.2443871  53.1211137  12.5089877  39.9754730  54.0240708  13.4795865
  41.1108433  54.4507384  14.8910706  40.8526210  55.3724455  14.8895037
  40.5793473  54.0537819  15.5811171  46.0554621  67.5558171   7.6700792
  46.2291499  66.9904594   6.9174644  46.5483513  68.3559066   7.4880282
  31.8731581  59.5672840  15.7364351  31.3285049  60.3432648  15.8684625
  32.7510931  59.9143645  15.5783472  38.6619198  52.8984424   8.1145149
  38.7835109  51.9701070   8.3136037  38.3721240  52.9123110   7.2023465
  41.5310388  50.5839334  11.2511869  41.5532085  50.6478668  10.2963849
  41.9478447  49.7443843  11.4452375  51.9094013  60.3194594   9.2891092
  52.3525159  59.5701919   8.8910215  51.0320523  60.3104730   8.9064824
  47.0429794  66.8724935   4.7697690  47.7380699  67.4931628   4.9885005
  47.3852944  66.0220287   5.0450068  32.6597603  58.6942736  18.6294507
  31.9179339  58.8425372  19.2159138  32.3390347  58.9551002  17.7661257
  48.9421217  64.3224641   6.2985021  49.4672541  64.6611914   5.5734341
  48.8543570  63.3871656   6.1148156  40.6041266  68.2358715  18.4274898
  40.9128392  67.9907861  19.2997597  41.4016748  68.4405353  17.9393768
  40.6261878  70.3896624  10.6580274  40.1866868  69.8973003  11.3513131
  41.3769995  69.8469592  10.4172349  33.1054217  66.5808165  10.6604902
  33.9312237  66.2811937  10.2803546  32.7548269  65.8115788  11.1094691
  38.0735750  65.9334633  12.7302576  37.4515759  65.2705338  12.4304804
  38.7440617  65.9595765  12.0476224  31.3062822  64.4994492  11.6193836
  30.4694730  64.0716666  11.4377837  31.2786467  64.6926935  12.5564627
  38.1460277  54.4116421  22.3235082  38.1948433  55.2878544  21.9412851
  38.6882792  53.8693814  21.7506725  48.6315123  64.9557545  21.6036219
  47.8410667  64.9381684  21.0640718  48.3948478  65.4945838  22.3585255
  48.7512998  61.8050011  18.9168947  48.8011003  61.6400018  19.8584470
  48.6426921  60.9377270  18.5266828  37.6349257  64.4838557   6.2061036
  37.7837377  65.1674021   5.5527709  38.4415700  64.4643647   6.7210492
  46.0416761  57.7880939  20.2328254  46.9426623  57.6487404  19.9412252
  46.1164735  57.9535394  21.1726432  40.3759566  55.1647794  19.0781440
  39.5062875  55.4581360  18.8064029  40.6119046  55.7488239  19.7988704
  50.2531195  64.2246953  19.1610969  49.9616003  64.5876933  19.9974430
  49.6403326  63.5113961  18.9824301  51.4526877  61.7899832  11.6813539
  52.2873769  62.2289636  11.8451100  51.5886006  61.3138486  10.8621785
  48.5018383  59.3479567  17.6291027  48.9772505  59.5407213  16.8209878
  47.5783949  59.4038753  17.3834411  35.3901890  60.5103734   7.2122105
  35.1447932  59.6066064   7.4102315  35.5597804  60.5120885   6.2701583
  43.0798600  51.3827411  16.5946861  43.5980544  52.1188438  16.2693349
  42.7253732  51.6891404  17.4293620  34.6597537  56.2432092   4.7108267
  33.9666782  56.3176447   4.0548303  34.4149289  55.4792436   5.2329784
  43.3311194  47.8027693  12.1147757  43.6112948  47.1350882  12.7408184
  44.1161801  47.9956789  11.6022421  41.1344662  66.9786687   3.6772784
  40.5618629  67.5976874   3.2243256  41.7077456  67.5286049   4.2112706
  47.2020052  56.2245327  15.8619333  48.1537475  56.3243425  15.8831557
  47.0323503  55.4323596  16.3717417  45.2234432  53.3100910  16.0478733
  44.6284364  53.5905923  15.3525222  44.9384128  53.7994811  16.8195475
  44.3541922  67.2623837   4.8081366  45.2872595  67.1969399   5.0114241
  44.2665135  68.0980104   4.3495899  46.9829939  66.5789708   1.7685314
  46.9043570  66.2449571   2.6621071  47.8039606  67.0711476   1.7676786
  49.6808130  59.4451447  14.9761632  49.6484450  58.5067448  15.1621316
  50.2908754  59.5235484  14.2427457  41.5191461  58.3147500   1.0188836
  42.4650566  58.1853708   1.0877254  41.1405706  57.5762162   1.4958264
  49.8302618  56.2362490  15.0219915  49.3141667  55.4520947  14.8349844
  50.7142567  55.9081207  15.1866435  47.4913345  49.9803506  10.9815728
  47.2938167  49.6718594  11.8659060  48.1013051  50.7065145  11.1113658
  55.4984680  60.5067454  14.1167669  56.2288068  60.2452742  14.6775372
  54.8891625  59.7696176  14.1569737  53.5799977  58.6475316  14.7142120
  52.8533141  58.5131281  14.1058612  53.1647264  58.9552145  15.5198838
  41.4030153  62.3665246  22.4789493  42.3233163  62.5443845  22.6729540
  41.3679736  61.4221291  22.3269192  39.7034378  56.2397476   0.9543721
  38.7965833  55.9430589   1.0306435  39.9810359  55.9427294   0.0878008
  30.6212318  57.5603840  11.4042768  30.3015103  56.7069148  11.1117142
  30.0745747  57.7752418  12.1600735  34.3992226  60.2766281  15.1212274
  34.6178236  61.2083389  15.1400308  34.8118000  59.9174255  15.9067078
  41.3196444  50.7834366   7.1087963  40.5097172  50.4381451   7.4843209
  42.0080861  50.4741910   7.6975574  43.2486992  49.8612413   8.7312259
  43.8018031  50.2807866   9.3902282  43.4857078  48.9348161   8.7735215
  39.2720091  55.8499486  24.5115023  39.1716818  56.7993843  24.4427114
  39.0541633  55.5217725  23.6391093  38.4733163  53.0984412   1.0955701
  39.3352327  53.4239310   1.3551518  38.6583507  52.3115907   0.5828766
  30.4900578  61.1806751  13.3735889  29.7964050  60.7660704  12.8605844
  31.2373569  61.2227288  12.7769308  46.6265799  51.9712938   8.2390924
  46.0464468  52.6297742   7.8568976  46.3601732  51.1490283   7.8278341
  45.0769365  51.3717996  10.4412244  45.5769144  51.4834530   9.6326563
  45.7204973  51.0679049  11.0813052  39.1351361  59.2796625  23.3280085
  38.6518443  60.0796985  23.5343974  39.2212300  59.2904570  22.3747529
  32.4037321  61.1125005  11.2501904  32.3808009  61.2112692  10.2983787
  32.7137957  61.9590156  11.5719070  35.0624699  63.1701160  15.3648519
  36.0167952  63.1385102  15.2978450  34.8637222  62.7091784  16.1798745
  35.6524081  61.7402276  17.9319316  36.4716970  62.2346355  17.9554154
  35.9260889  60.8234244  17.9036884  45.4090677  54.1313028   7.2947272
  44.5216532  54.4162679   7.0767467  45.8244666  53.9706792   6.4474549
  48.7605213  54.1559549  11.0101611  49.5365603  54.6456002  11.2826228
  48.0353347  54.5817604  11.4673481  51.1977772  54.8687169  12.0675552
  51.7922263  54.6282905  11.3568860  51.2704356  54.1494299  12.6949088
  33.4174928  68.7120780  12.3818717  33.2829396  67.9521180  11.8156715
  33.0006990  69.4361679  11.9147505  44.5533891  63.8957703   1.3895292
  45.2569741  64.1007706   2.0052947  43.8296539  64.4634465   1.6544375
  45.3831701  59.6467564   7.5097562  45.3266902  60.1036116   6.6705194
  45.9360043  58.8858249   7.3320405  49.1936507  55.4357296   8.3347682
  48.9373441  55.0353932   9.1655889  48.5689375  56.1501090   8.2097821
  53.5048845  58.1753369  10.8418973  52.9448403  58.2446559  11.6150535
  52.8992348  57.9994354  10.1218469  36.5744053  69.6090097  12.5937159
  36.4576438  70.5535529  12.4915849  35.7536500  69.3063658  12.9822958
  46.4620588  64.3340232   3.4393752  47.2966192  63.9021431   3.2571227
  46.3004931  64.1622246   4.3670646  46.1166480  60.8372346   4.8050091
  46.0615284  60.6716617   3.8638535  45.4912535  61.5448378   4.9612281
  30.9058995  56.0740410  18.6311513  31.5517859  55.5639364  19.1198739
  30.6976146  56.8109092  19.2054939  43.4312387  63.1421257  24.1303654
  44.3003547  63.3161910  23.7690289  42.9519139  63.9615674  24.0079383
  39.4262606  50.3380455   4.3835410  39.4141275  51.2822294   4.5403680
  40.3186028  50.1550600   4.0894871  37.5998568  70.2618358  15.8093088
  38.5025814  70.2941969  16.1259583  37.3735938  69.3318809  15.8239423
  39.3552170  69.0149345  12.4703166  38.4047801  69.0151207  12.3567539
  39.6584656  68.2682080  11.9539201  43.2414725  46.9323231   8.6381346
  42.4747121  46.3781718   8.7838029  43.6525430  47.0045100   9.4995498
  35.2456486  53.2208027  22.7286528  36.1087948  52.8644832  22.9389852
  34.6721897  52.8821922  23.4161932  55.0904863  74.8509883  13.5348929
  55.7283273  74.7316631  12.8312269  54.9725706  75.7990727  13.5936881
  51.8994569  74.8037311  13.4710453  51.5613081  74.6878376  12.5830988
  52.7684338  74.4028477  13.4511459  47.7581385  76.6572788   9.4607344
  47.1946250  76.5662725   8.6923632  47.6433780  75.8372692   9.9409837
  52.3814352  75.9572163  19.4296659  52.3702993  75.5624961  18.5577163
  52.5434992  75.2238236  20.0230430  45.3045817  78.1523979  12.2991565
  46.0967109  77.8114804  11.8837864  45.5442467  78.2618955  13.2193718
  47.2636571  77.4132893   5.1708944  48.0367447  76.8661880   5.0321819
  47.6161970  78.2777142   5.3823405  49.1021614  78.7409275  18.3775843
  48.8111479  79.6454906  18.2622509  49.7378598  78.7825803  19.0919912
  50.0277820  76.1186124  14.9677203  50.6241393  75.8942146  14.2534165
  50.0852792  75.3770869  15.5702650  49.6002849  73.5725559   2.8027393
  49.8528369  73.0507080   2.0410856  48.6627408  73.4091704   2.9054077
  54.6446132  72.5761337  10.6102137  55.4309221  72.1580760  10.2592554
  54.9084836  73.4807429  10.7783785  60.0454559  72.5136570  11.5135115
  60.7779731  71.9435787  11.7472945  59.2893914  72.1258171  11.9541621
  49.3199138  75.4753665   5.0051768  49.2035396  74.7998568   5.6732853
  49.4301397  74.9886039   4.1883921  51.6630678  74.9363812   8.7098458
  51.2988886  74.4094433   9.4211379  52.5197794  74.5462281   8.5364943
  57.5679979  66.2258145  15.9729724  57.2363304  67.0953555  15.7490939
  56.9725592  65.9094429  16.6523754  51.3036165  69.9653712   3.7059806
  51.4710568  70.8333948   4.0730277  51.1133334  70.1280993   2.7821095
  54.0611499  78.4270691  15.3725637  53.7612222  79.3295729  15.2641444
  53.7162558  78.1602874  16.2246789  47.5123980  74.8784487  11.4062341
  46.5874477  74.7460701  11.6140033  47.7608393  75.6578707  11.9032283
  57.4608642  70.9453231  13.0523074  56.5525520  70.8768639  12.7581835
  57.4096238  71.4225176  13.8804899  51.2825386  72.4211369   4.6906473
  51.1625011  72.8668420   5.5291953  50.5877975  72.7696687   4.1320011
  44.8732791  74.5217761  12.2406130  45.0025172  74.7752240  13.1545542
  44.1930242  75.1145469  11.9210785  49.0432278  85.1915011   8.3396604
  48.9656308  86.1422836   8.4185085  48.4393922  84.8460883   8.9971531
  51.5349508  72.3642876  20.9957971  50.7582842  72.9236796  20.9860836
  52.1740071  72.8499659  21.5172841  59.3270289  69.1469669  14.8300948
  58.6844669  69.4402202  14.1840742  58.8225217  69.0322589  15.6354144
  56.9810452  72.8932842   5.5186807  57.8928309  73.1260229   5.3434505
  56.4720100  73.4769886   4.9561886  49.7895880  75.1728330  20.5575938
  50.5310565  75.7113374  20.2810762  49.0832866  75.7994618  20.7147490
  55.2651220  77.3157470  19.1548100  55.6734576  76.8739881  18.4102732
  54.5428482  76.7410098  19.4082293  51.6182290  72.2530077  16.5281657
  52.4643485  72.6769490  16.6716306  51.5580928  71.5963701  17.2220220
  55.5880035  77.8758661  12.9100389  54.9588897  78.0404375  12.2076456
  55.2005697  78.2900270  13.6811353  59.4669267  78.8113099  10.2644752
  58.7820305  79.1912000   9.7141786  59.5513116  79.4208425  10.9976700
  54.7681735  69.9134445  18.1862830  54.5242667  70.6676506  17.6497106
  55.0441666  70.2919793  19.0210077  56.7220198  76.4573058  16.8640096
  56.9337094  77.1004818  16.1874477  56.6749947  75.6235374  16.3962026
  54.3246427  69.0690878  13.7676668  53.4630906  69.3672132  14.0593406
  54.3508862  69.2861277  12.8357701  51.1407997  77.6133069  10.1750474
  51.6046342  77.8920772   9.3855096  50.8764795  76.7116513   9.9923564
  48.0332078  77.1604550  13.1130237  48.6033435  77.5891819  12.4747721
  48.6240190  76.8787135  13.8114423  50.0776883  73.7356221   6.9840039
  50.7800926  74.1877265   7.4513965  49.7457511  73.0940040   7.6119932
  48.5257244  72.3267978  21.3591248  47.8955905  73.0084259  21.5926645
  48.4193332  72.2151059  20.4144386  43.8202217  71.9939774  12.2857172
  43.0301271  72.2497302  11.8097283  44.3113464  72.8088112  12.3909213
  57.8366026  79.3345013  15.0362453  58.6583470  78.9325200  14.7545135
  57.8328429  79.2313247  15.9878569  45.7716962  72.3584353   9.2440649
  44.9748125  72.4703047   9.7624145  45.5442554  72.6971005   8.3781540
  51.6022630  78.8829056  17.1923164  51.6667062  79.3449464  18.0281335
  50.8933554  78.2526421  17.3205473  42.1039920  72.2470264  14.7172163
  42.3547958  73.1317274  14.9829739  42.6399468  72.0674866  13.9447255
  65.9272019  75.6783762  11.3847425  65.1735728  75.1091160  11.2291429
  66.0619560  75.6446426  12.3318059  51.3170647  80.5497164   7.0602144
  51.1816322  81.3948700   7.4886992  51.8580460  80.7516441   6.2968078
  47.8037987  66.6288744  23.7216499  47.4104933  66.0754942  24.3964143
  48.6204127  66.9399322  24.1123017  44.7700045  78.0672602   7.6330069
  45.2824565  78.8615852   7.7835634  45.4222758  77.3698892   7.5663671
  46.5794929  81.1838358   9.7152822  46.7561558  82.1056323   9.5273806
  47.3751763  80.8696777  10.1447202  50.7205948  68.0446623  21.3136756
  51.4615661  68.6453776  21.2341218  50.9523871  67.3024261  20.7554798
  45.8647286  73.2302990  19.5914985  45.7500801  72.3288247  19.8922084
  45.0091804  73.4766687  19.2399802  52.9439124  81.1720730  21.1902486
  52.5002978  80.3857109  20.8723391  53.6056337  81.3599881  20.5246377
  47.7026245  82.7016532  15.7163165  48.2533670  82.5733595  14.9440159
  46.8637721  83.0011421  15.3658057  55.0420362  81.4523530  19.2183887
  55.0238837  82.2732411  18.7264156  55.9640282  81.3277605  19.4434028
  51.4993416  78.9667660  20.0607396  52.0321753  78.2055948  19.8306704
  50.9707497  78.6741312  20.8031550  54.6663111  64.0727726  15.5901037
  54.3227380  64.9629367  15.5140148  55.0342073  63.8829383  14.7270622
  42.7348961  76.3961256   8.4089640  43.5724183  76.8058265   8.1923347
  42.9127229  75.4560698   8.3789833  54.6313394  74.0636337   4.0973473
  54.1160017  74.8340941   4.3361860  54.3590702  73.3901473   4.7206534
  52.2160505  68.9086038   9.1558711  51.3602101  68.5192888   8.9764350
  52.6287456  68.9877998   8.2958496  53.7459651  66.4432381  13.5550271
  53.2424447  66.4062516  12.7418076  54.0390258  67.3525124  13.6146927
  49.9902537  66.5271111  12.5616452  50.8555534  66.3313919  12.2022342
  50.0580046  66.2981462  13.4885809  54.4199697  71.9363429   5.9233254
  54.1149832  72.2509578   6.7743397  55.3730139  72.0144849   5.9660587
  52.8646129  78.0953652   7.5726208  52.3367490  77.3606412   7.2599445
  52.3633631  78.8728329   7.3266176  57.8438975  76.2902673  12.6893254
  57.1862649  76.9801934  12.7773383  58.6479374  76.6799105  13.0327240
  47.5964856  68.7573319   9.9332819  48.1708608  68.5348500   9.2006012
  48.1835839  68.8262013  10.6861421  56.6544433  74.6447045  10.7397196
  57.1676315  75.2777037  11.2418905  57.3045657  74.0448241  10.3740556
  47.9234443  70.7877780   3.9528704  47.0871756  71.1252466   4.2737979
  47.7839213  70.6526759   3.0155841  49.8987524  65.6314567   8.6607889
  49.2451936  65.3163585   8.0364503  49.8567998  65.0090308   9.3867712
  53.1325264  72.1196501  12.9855536  52.2147826  72.3411448  12.8277224
  53.5485408  72.1942811  12.1267244  53.9160312  73.5187917   8.1158217
  54.6632131  74.0309314   7.8065339  54.1851902  73.1971969   8.9762610
  52.1886962  76.0146457   5.0985171  51.2798182  75.7305490   5.1957641
  52.2182046  76.4345536   4.2388478  57.4206230  79.6253047   8.8676338
  56.9668557  78.7843957   8.9241529  56.7900196  80.2614445   9.2051119
  56.3639149  70.5545033  10.0977006  55.6261906  70.0422419  10.4287248
  56.6165923  70.1145414   9.2860283  55.8639169  81.4629544   9.8026157
  56.1562143  82.0234601   9.0838522  56.3737789  81.7558105  10.5579316
  56.4650777  63.3321285  10.6918775  56.7709653  62.4718648  10.4044690
  57.1903381  63.9238905  10.4917769  42.7575133  73.7351971   9.0800373
  42.5599532  73.1421332   8.3551440  42.2021797  73.4304182   9.7976312
  50.7371856  73.6275078  11.1994966  50.7920466  72.6748914  11.1237443
  49.9263058  73.7834517  11.6836265  48.6764216  72.2452138   8.9585345
  47.8632082  72.5446308   9.3650537  49.1723210  71.8507826   9.6759827
  50.8272794  82.2409895  10.8919610  50.7848973  82.4670741   9.9628142
  51.7435493  82.0073269  11.0405411  54.2738428  72.7093962  17.7900239
  54.6287816  72.9365435  18.6494705  54.9210559  73.0412339  17.1677494
  60.0036165  75.8312398   8.4949568  59.8654063  76.0213994   7.5670757
  59.6472384  76.5931781   8.9517619  48.1678291  69.8170493  14.5746580
  48.8077670  69.6759252  13.8769543  47.3355822  69.5305007  14.1985182
  60.0305544  77.8988925  13.5060839  60.4642051  77.8064214  14.3543894
  60.7437125  77.8746426  12.8680855  48.9438595  79.1172924  10.6881572
  49.7379193  78.6223244  10.4864147  48.2330287  78.5890787  10.3249278
  53.7633439  81.4991019  15.0393940  53.8170462  82.0681955  15.8071656
  52.8948221  81.6692904  14.6747977  45.2521358  73.2616005   6.7641325
  44.3218946  73.2000461   6.9811287  45.3478830  72.7391958   5.9677966
  45.1706907  69.7870818   9.3519567  45.4313725  70.7016151   9.2428727
  45.9924080  69.3195261   9.5016180  46.6431833  71.2008575  16.5218391
  47.3154886  70.9925938  15.8731040  45.8161619  71.0030661  16.0823624
  60.8921094  77.9412626  16.0393725  61.0856984  78.8458436  16.2853000
  60.7921712  77.4820045  16.8732310  52.5457405  67.8270516  18.5384052
  51.8985320  68.5260466  18.4448529  53.3158420  68.2606660  18.9060300
  55.9536203  78.0919368  21.6134605  55.8021709  77.8629920  20.6964689
  55.9440882  79.0489970  21.6265951  52.7221539  75.6651281  16.5980872
  53.6513599  75.8162441  16.4249839  52.3012569  75.7535302  15.7429518
  51.5209871  79.6901946  14.3679410  51.3820957  79.3220730  15.2405348
  50.7324467  80.2049585  14.1963367  53.0715086  79.0683548  11.7568247
  52.7364919  79.0284318  12.6525897  52.5719032  78.4028264  11.2838658
  47.0459330  74.4751178  17.2820829  46.9079128  73.7431417  17.8832368
  47.9564253  74.3860078  17.0005016  49.6741631  74.1871138  16.7704508
  50.3841249  73.5464330  16.7291127  49.6310939  74.4384033  17.6930689
  57.6628409  81.1238491  19.6911087  57.6040955  80.4397711  19.0241670
  58.0647928  81.8657481  19.2391713  48.3870565  71.1736356  18.5900148
  47.8507922  70.7227094  19.2421744  47.7987273  71.3082264  17.8470612
  46.6819108  87.9400405  12.4844806  46.9215706  88.5718929  13.1623825
  45.8388305  87.5888445  12.7710166  47.7972824  70.6325007   1.1526611
  46.9202290  70.5113808   0.7888858  48.2730577  69.8411085   0.9005500
  57.6645817  79.0878075  17.9225067  56.7772595  78.7503997  18.0451466
  58.2344368  78.3561106  18.1593832  39.3174964  75.4202167  11.2468118
  40.0046004  75.1063897  10.6589134  39.1623092  76.3243531  10.9735370
  44.1209686  70.3092363  15.6753142  44.0367875  69.7018033  14.9403552
  43.2992392  70.8001382  15.6762638  51.1946970  83.7479527  14.8886310
  51.1217141  84.5534499  15.4005615  50.7524363  83.9471493  14.0634332
  50.9836750  82.9851297   8.3989132  50.2004271  83.5272978   8.4927356
  51.6829495  83.5025277   8.7983373  54.2933400  68.7945927  11.0423337
  54.7902099  68.0415889  10.7224407  53.5220381  68.8310243  10.4766546
  62.1463157  74.4986292  12.6841629  62.1353033  75.3811008  12.3135562
  61.2780537  74.1457843  12.4896166  53.6545654  83.6466361  17.0444469
  54.3673626  84.2813826  16.9720370  53.1635682  83.7430227  16.2284471
  55.3763180  77.5517614   8.6161761  54.4419459  77.6719076   8.4466465
  55.5539849  76.6490081   8.3521770  50.8768368  70.9363310  10.7695022
  50.5066156  70.3834350  11.4575927  51.3727461  70.3321443  10.2170022
  58.7635732  73.3934933   9.1511795  59.2296184  74.2262925   9.0772097
  59.2143232  72.9279915   9.8557053  48.7057567  81.3960805  17.8650040
  49.4067027  82.0297288  18.0179434  48.2352682  81.7375536  17.1045679
  56.7352395  65.7615520  13.1902696  55.8215474  65.9919747  13.3584903
  57.1645496  65.8453964  14.0416728  56.5058853  73.9505412  15.6902590
  55.8530303  74.1981320  15.0355043  56.8839233  73.1369550  15.3565067
  53.4666027  83.9865105   9.7930760  53.6488421  83.1686761  10.2558513
  54.2899013  84.2032798   9.3555650  52.5546426  74.6925223  22.1768627
  51.8787063  74.5919353  22.8471002  53.3774060  74.5364437  22.6404624
  44.3025285  80.9297160  14.7981142  44.8878722  80.1840848  14.9309047
  44.1050124  81.2401117  15.6817806  47.1563940  83.9648407   9.8143585
  46.4874316  84.4494535   9.3307625  47.0176810  84.2117628  10.7286963
  38.8942940  73.5002760  13.5185586  38.9327039  72.9666351  14.3122704
  38.3883233  72.9737966  12.8996563  51.2969209  85.9992151  16.4126243
  51.8487517  86.1623772  17.1775328  51.6375402  86.5896589  15.7406268
  46.2733702  68.3467301  17.0148128  46.3375029  69.2082131  16.6025526
  46.2100822  67.7341302  16.2820486  45.7485975  70.4190433  20.6621162
  46.3758013  70.0367510  21.2758686  44.8913894  70.2004635  21.0276855
  56.1480083  80.8253408  22.2674898  56.6919987  81.4383367  21.7729852
  55.5666928  81.3832987  22.7841911  42.5251517  72.2266862   6.5939517
  42.8204958  71.3177541   6.5406571  41.6239553  72.2054602   6.2720519
  54.4337596  83.9474126  13.3989925  54.3088736  83.1463866  12.8900871
  55.0916687  84.4420320  12.9103895  46.0545764  70.3022859  12.5767066
  45.3332350  70.9158826  12.4374539  46.8439020  70.8380624  12.4983711
  56.4972505  81.7483146  15.0269475  55.5502840  81.6288498  14.9547802
  56.8455278  80.8605644  15.1095737  48.8572078  67.6377285  18.8507717
  49.3806480  67.8839582  19.6134027  48.6384411  68.4697320  18.4310855
  44.2539359  69.9080960   6.7178842  43.9252065  69.0278339   6.5353948
  44.6078730  69.8528629   7.6055231  53.5018938  81.5435863  11.2273828
  53.3543900  80.6152570  11.4081398  54.3272431  81.5655953  10.7430903
  47.3681182  70.1953930   7.0854320  47.7077255  70.7239851   6.3632928
  47.8153303  70.5334336   7.8612886  57.1053060  82.3664421  12.3138700
  58.0299607  82.1607283  12.1763152  56.9368363  82.1180822  13.2228042
  50.0624623  68.5790980  16.5357388  49.7221443  67.7798793  16.9378068
  49.3563629  68.8792691  15.9634221  50.7141095  65.6640293  14.9884711
  51.5367164  65.1900771  14.8663601  50.9579158  66.4430777  15.4883397
  49.3549329  68.6928551   5.2847613  50.0757692  69.0709804   4.7811329
  48.7314633  69.4117428   5.3882590  53.4980452  69.3973700   6.2205945
  53.7144067  70.2798338   5.9194773  53.0174519  69.0059914   5.4911587
  48.2379674  72.3559413  12.7976689  48.0924254  72.6699717  13.6900971
  47.7604877  72.9744314  12.2447588  50.0976056  69.3461961  12.8457579
  50.0837625  68.4503055  12.5089877  50.8148485  69.3532625  13.4795865
  51.9502187  69.7799302  14.8910706  51.6919965  70.7016372  14.8895037
  51.4187228  69.3829736  15.5811171  42.7125336  74.8964758  15.7364351
  42.1678804  75.6724566  15.8684625  43.5904686  75.2435562  15.5783472
  49.5012952  68.2276342   8.1145149  49.6228864  67.2992988   8.3136037
  49.2114995  68.2415028   7.2023465  52.3704143  65.9131252  11.2511869
  52.3925840  65.9770585  10.2963849  52.7872202  65.0735761  11.4452375
  62.7487767  75.6486512   9.2891092  63.1918913  74.8993837   8.8910215
  61.8714277  75.6396648   8.9064824  43.4991358  74.0234654  18.6294507
  42.7573094  74.1717289  19.2159138  43.1784102  74.2842920  17.7661257
  51.4435020  83.5650632  18.4274898  51.7522147  83.3199779  19.2997597
  52.2410502  83.7697271  17.9393768  51.4655632  85.7188542  10.6580274
  51.0260623  85.2264921  11.3513131  52.2163749  85.1761510  10.4172349
  43.9447971  81.9100083  10.6604902  44.7705991  81.6103855  10.2803546
  43.5942023  81.1407705  11.1094691  48.9129504  81.2626551  12.7302576
  48.2909514  80.5997256  12.4304804  49.5834371  81.2887683  12.0476224
  42.1456576  79.8286409  11.6193836  41.3088485  79.4008584  11.4377837
  42.1180222  80.0218853  12.5564627  48.9854032  69.7408339  22.3235082
  49.0342187  70.6170462  21.9412851  49.5276546  69.1985732  21.7506725
  59.4708878  80.2849462  21.6036219  58.6804421  80.2673601  21.0640718
  59.2342232  80.8237756  22.3585255  59.5906753  77.1341929  18.9168947
  59.6404758  76.9691936  19.8584470  59.4820676  76.2669188  18.5266828
  48.4743011  79.8130474   6.2061036  48.6231132  80.4965939   5.5527709
  49.2809455  79.7935564   6.7210492  56.8810515  73.1172857  20.2328254
  57.7820378  72.9779322  19.9412252  56.9558490  73.2827312  21.1726432
  51.2153320  70.4939711  19.0781440  50.3456630  70.7873278  18.8064029
  51.4512801  71.0780156  19.7988704  61.0924949  79.5538870  19.1610969
  60.8009758  79.9168851  19.9974430  60.4797081  78.8405879  18.9824301
  62.2920632  77.1191750  11.6813539  63.1267523  77.5581554  11.8451100
  62.4279761  76.6430403  10.8621785  59.3412138  74.6771485  17.6291027
  59.8166259  74.8699131  16.8209878  58.4177703  74.7330671  17.3834411
  46.2295644  75.8395652   7.2122105  45.9841686  74.9357982   7.4102315
  46.3991559  75.8412802   6.2701583  53.9192354  66.7119328  16.5946861
  54.4374298  67.4480355  16.2693349  53.5647487  67.0183322  17.4293620
  45.4991292  71.5724010   4.7108267  44.8060537  71.6468365   4.0548303
  45.2543044  70.8084353   5.2329784  54.1704948  63.1319611  12.1147757
  54.4506702  62.4642800  12.7408184  54.9555555  63.3248707  11.6022421
  58.0413807  71.5537245  15.8619333  58.9931230  71.6535343  15.8831557
  57.8717257  70.7615513  16.3717417  56.0628186  68.6392828  16.0478733
  55.4678118  68.9197841  15.3525222  55.7777883  69.1286729  16.8195475
  60.5201884  74.7743365  14.9761632  60.4878205  73.8359365  15.1621316
  61.1302508  74.8527401  14.2427457  60.6696373  71.5654408  15.0219915
  60.1535422  70.7812865  14.8349844  61.5536322  71.2373125  15.1866435
  58.3307100  65.3095424  10.9815728  58.1331921  65.0010512  11.8659060
  58.9406805  66.0357063  11.1113658  66.3378434  75.8359371  14.1167669
  67.0681823  75.5744660  14.6775372  65.7285380  75.0988093  14.1569737
  64.4193731  73.9767234  14.7142120  63.6926895  73.8423199  14.1058612
  64.0041018  74.2844063  15.5198838  52.2423908  77.6957164  22.4789493
  53.1626917  77.8735763  22.6729540  52.2073491  76.7513209  22.3269192
  50.5428133  71.5689394   0.9543721  49.6359588  71.2722507   1.0306435
  50.8204114  71.2719212   0.0878008  41.4606073  72.8895757  11.4042768
  41.1408857  72.0361066  11.1117142  40.9139501  73.1044336  12.1600735
  45.2385980  75.6058198  15.1212274  45.4571990  76.5375306  15.1400308
  45.6511754  75.2466173  15.9067078  52.1590198  66.1126284   7.1087963
  51.3490927  65.7673369   7.4843209  52.8474615  65.8033827   7.6975574
  54.0880747  65.1904331   8.7312259  54.6411785  65.6099784   9.3902282
  54.3250833  64.2640079   8.7735215  50.1113846  71.1791404  24.5115023
  50.0110573  72.1285761  24.4427114  49.8935388  70.8509643  23.6391093
  49.3126917  68.4276329   1.0955701  50.1746081  68.7531228   1.3551518
  49.4977261  67.6407825   0.5828766  41.3294333  76.5098669  13.3735889
  40.6357804  76.0952622  12.8605844  42.0767324  76.5519205  12.7769308
  57.4659554  67.3004856   8.2390924  56.8858223  67.9589660   7.8568976
  57.1995486  66.4782200   7.8278341  55.9163120  66.7009913  10.4412244
  56.4162898  66.8126448   9.6326563  56.5598728  66.3970966  11.0813052
  49.9745116  74.6088543  23.3280085  49.4912198  75.4088903  23.5343974
  50.0606055  74.6196488  22.3747529  43.2431075  76.4416923  11.2501904
  43.2201764  76.5404610  10.2983787  43.5531712  77.2882073  11.5719070
  45.9018453  78.4993078  15.3648519  46.8561707  78.4677020  15.2978450
  45.7030977  78.0383701  16.1798745  46.4917835  77.0694194  17.9319316
  47.3110724  77.5638272  17.9554154  46.7654643  76.1526162  17.9036884
  56.2484432  69.4604946   7.2947272  55.3610287  69.7454597   7.0767467
  56.6638421  69.2998709   6.4474549  59.5998968  69.4851467  11.0101611
  60.3759358  69.9747919  11.2826228  58.8747102  69.9109521  11.4673481
  62.0371526  70.1979086  12.0675552  62.6316017  69.9574822  11.3568860
  62.1098110  69.4786217  12.6949088  44.2568682  84.0412697  12.3818717
  44.1223150  83.2813098  11.8156715  43.8400744  84.7653597  11.9147505
  56.2225455  74.9759482   7.5097562  56.1660657  75.4328033   6.6705194
  56.7753798  74.2150167   7.3320405  60.0330261  70.7649214   8.3347682
  59.7767196  70.3645850   9.1655889  59.4083129  71.4793008   8.2097821
  64.3442599  73.5045287  10.8418973  63.7842157  73.5738476  11.6150535
  63.7386103  73.3286272  10.1218469  47.4137808  84.9382014  12.5937159
  47.2970192  85.8827447  12.4915849  46.5930254  84.6355576  12.9822958
  41.7452750  71.4032328  18.6311513  42.3911613  70.8931282  19.1198739
  41.5369901  72.1401009  19.2054939  54.2706142  78.4713175  24.1303654
  55.1397301  78.6453827  23.7690289  53.7912893  79.2907592  24.0079383
  50.2656360  65.6672372   4.3835410  50.2535030  66.6114212   4.5403680
  51.1579782  65.4842518   4.0894871  48.4392322  85.5910276  15.8093088
  49.3419569  85.6233886  16.1259583  48.2129692  84.6610727  15.8239423
  50.1945924  84.3441263  12.4703166  49.2441555  84.3443124  12.3567539
  50.4978410  83.5973997  11.9539201  54.0808480  62.2615149   8.6381346
  53.3140875  61.7073636   8.7838029  54.4919185  62.3337018   9.4995498
  46.0850241  68.5499945  22.7286528  46.9481702  68.1936750  22.9389852
  45.5115651  68.2113840  23.4161932  63.2208107  91.2864081  19.4296659
  63.2096748  90.8916879  18.5577163  63.3828746  90.5530153  20.0230430
  59.9415368  94.0701193  18.3775843  59.6505234  94.9746824  18.2622509
  60.5772352  94.1117720  19.0919912  68.4073734  81.5550062  15.9729724
  68.0757058  82.4245473  15.7490939  67.8119347  81.2386346  16.6523754
  62.3743263  87.6934794  20.9957971  61.5976597  88.2528714  20.9860836
  63.0133826  88.1791577  21.5172841  60.6289635  90.5020247  20.5575938
  61.3704319  91.0405291  20.2810762  59.9226620  91.1286536  20.7147490
  66.1044975  92.6449388  19.1548100  66.5128331  92.2031798  18.4102732
  65.3822236  92.0702015  19.4082293  62.4576045  87.5821995  16.5281657
  63.3037240  88.0061408  16.6716306  62.3974682  86.9255619  17.2220220
  65.6075490  85.2426363  18.1862830  65.3636422  85.9968423  17.6497106
  65.8835420  85.6211711  19.0210077  59.3650999  87.6559895  21.3591248
  58.7349659  88.3376176  21.5926645  59.2587087  87.5442977  20.4144386
  54.6595971  87.3231692  12.2857172  53.8695025  87.5789220  11.8097283
  55.1507219  88.1380029  12.3909213  52.9433674  87.5762182  14.7172163
  53.1941713  88.4609192  14.9829739  53.4793223  87.3966784  13.9447255
  58.6431741  81.9580661  23.7216499  58.2498687  81.4046860  24.3964143
  59.4597882  82.2691240  24.1123017  61.5599702  83.3738540  21.3136756
  62.3009416  83.9745694  21.2341218  61.7917625  82.6316178  20.7554798
  56.7041040  88.5594908  19.5914985  56.5894556  87.6580165  19.8922084
  55.8485558  88.8058604  19.2399802  63.7832878  96.5012648  21.1902486
  63.3396732  95.7149027  20.8723391  64.4450092  96.6891799  20.5246377
  62.3387170  94.2959577  20.0607396  62.8715507  93.5347866  19.8306704
  61.8101252  94.0033229  20.8031550  65.5056865  79.4019643  15.5901037
  65.1621135  80.2921285  15.5140148  65.8735828  79.2121301  14.7270622
  64.5853406  81.7724299  13.5550271  64.0818201  81.7354434  12.7418076
  64.8784013  82.6817041  13.6146927  60.8296292  81.8563028  12.5616452
  61.6949288  81.6605837  12.2022342  60.8973801  81.6273380  13.4885809
  65.1132182  88.0385880  17.7900239  65.4681570  88.2657353  18.6494705
  65.7604314  88.3704257  17.1677494  59.0072045  85.1462411  14.5746580
  59.6471425  85.0051170  13.8769543  58.1749576  84.8596924  14.1985182
  57.4825587  86.5300493  16.5218391  58.1548641  86.3217855  15.8731040
  56.6555374  86.3322579  16.0823624  63.3851159  83.1562434  18.5384052
  62.7379074  83.8552384  18.4448529  64.1552175  83.5898578  18.9060300
  66.7929957  93.4211286  21.6134605  66.6415464  93.1921838  20.6964689
  66.7834637  94.3781888  21.6265951  57.8853084  89.8043096  17.2820829
  57.7472882  89.0723335  17.8832368  58.7958008  89.7151996  17.0005016
  60.5135385  89.5163055  16.7704508  61.2235004  88.8756248  16.7291127
  60.4704693  89.7675950  17.6930689  59.2264319  86.5028273  18.5900148
  58.6901676  86.0519012  19.2421744  58.6381028  86.6374182  17.8470612
  50.1568718  90.7494084  11.2468118  50.8439758  90.4355814  10.6589134
  50.0016847  91.6535449  10.9735370  54.9603440  85.6384281  15.6753142
  54.8761629  85.0309950  14.9403552  54.1386147  86.1293299  15.6762638
  67.5746149  81.0907438  13.1902696  66.6609229  81.3211665  13.3584903
  68.0039250  81.1745882  14.0416728  63.3940181  90.0217141  22.1768627
  62.7180818  89.9211270  22.8471002  64.2167814  89.8656355  22.6404624
  49.7336694  88.8294678  13.5185586  49.7720794  88.2958268  14.3122704
  49.2276987  88.3029883  12.8996563  57.1127457  83.6759218  17.0148128
  57.1768783  84.5374049  16.6025526  57.0494577  83.0633220  16.2820486
  56.5879729  85.7482351  20.6621162  57.2151768  85.3659428  21.2758686
  55.7307648  85.5296553  21.0276855  66.9873838  96.1545326  22.2674898
  67.5313742  96.7675284  21.7729852  66.4060683  96.7124904  22.7841911
  56.8939519  85.6314776  12.5767066  56.1726105  86.2450744  12.4374539
  57.6832775  86.1672541  12.4983711  59.6965832  82.9669203  18.8507717
  60.2200234  83.2131500  19.6134027  59.4778166  83.7989238  18.4310855
  60.9018377  83.9082898  16.5357388  60.5615198  83.1090711  16.9378068
  60.1957384  84.2084609  15.9634221  61.5534849  80.9932210  14.9884711
  62.3760919  80.5192689  14.8663601  61.7972913  81.7722694  15.4883397
  60.9369811  84.6753879  12.8457579  60.9231380  83.7794972  12.5089877
  61.6542239  84.6824543  13.4795865  62.7895942  85.1091219  14.8910706
  62.5313719  86.0308290  14.8895037  62.2580982  84.7121654  15.5811171
  53.5519090  90.2256676  15.7364351  53.0072558  91.0016483  15.8684625
  54.4298440  90.5727480  15.5783472  63.2097897  81.2423170  11.2511869
  63.2319594  81.3062503  10.2963849  63.6265956  80.4027678  11.4452375
  54.3385112  89.3526572  18.6294507  53.5966848  89.5009207  19.2159138
  54.0177856  89.6134837  17.7661257  59.8247786  85.0700257  22.3235082
  59.8735942  85.9462380  21.9412851  60.3670301  84.5277650  21.7506725
  67.7204270  88.4464774  20.2328254  68.6214132  88.3071239  19.9412252
  67.7952244  88.6119229  21.1726432  62.0547075  85.8231629  19.0781440
  61.1850384  86.1165195  18.8064029  62.2906555  86.4072074  19.7988704
  64.7586109  82.0411246  16.5946861  65.2768053  82.7772273  16.2693349
  64.4041241  82.3475239  17.4293620  65.0098703  78.4611529  12.1147757
  65.2900457  77.7934718  12.7408184  65.7949310  78.6540624  11.6022421
  66.9021941  83.9684746  16.0478733  66.3071873  84.2489759  15.3525222
  66.6171637  84.4578647  16.8195475  63.0817662  93.0249081  22.4789493
  64.0020672  93.2027680  22.6729540  63.0467245  92.0805127  22.3269192
  52.2999827  88.2187675  11.4042768  51.9802612  87.3652983  11.1117142
  51.7533256  88.4336253  12.1600735  56.0779735  90.9350116  15.1212274
  56.2965745  91.8667224  15.1400308  56.4905509  90.5758090  15.9067078
  60.9507600  86.5083322  24.5115023  60.8504327  87.4577679  24.4427114
  60.7329142  86.1801561  23.6391093  52.1688087  91.8390587  13.3735889
  51.4751559  91.4244539  12.8605844  52.9161078  91.8811123  12.7769308
  60.8138870  89.9380461  23.3280085  60.3305952  90.7380821  23.5343974
  60.8999809  89.9488406  22.3747529  56.7412208  93.8284995  15.3648519
  57.6955461  93.7968938  15.2978450  56.5424731  93.3675619  16.1798745
  57.3311590  92.3986111  17.9319316  58.1504479  92.8930190  17.9554154
  57.6048398  91.4818080  17.9036884  52.5846504  86.7324245  18.6311513
  53.2305368  86.2223199  19.1198739  52.3763655  87.4692927  19.2054939
  65.1099896  93.8005093  24.1303654  65.9791056  93.9745745  23.7690289
  64.6306648  94.6199510  24.0079383  56.9243995  83.8791862  22.7286528
  57.7875457  83.5228667  22.9389852  56.3509406  83.5405757  23.4161932
  69.4825496  97.2872579  23.7216499  69.0892441  96.7338778  24.3964143
  70.2991636  97.5983157  24.1123017  67.7637750  99.2083780  22.7286528
  68.6269211  98.8520585  22.9389852  67.1903160  98.8697675  23.4161932
  41.5420599  37.6342368   6.1541966  41.5309240  37.2395166   5.2822469
  41.7041239  36.9008441   6.7475737  38.2627860  40.4179480   5.1021149
  37.9717726  41.3225111   4.9867816  38.8984845  40.4596008   5.8165219
  43.2217745  40.1040895   2.0970943  42.9218468  41.0065934   1.9886750
  42.8768805  39.8373079   2.9492096  40.6955755  34.0413081   7.7203278
  39.9189089  34.6007001   7.7106142  41.3346318  34.5269864   8.2418148
  38.9502127  36.8498535   7.2821245  39.6916812  37.3883579   7.0056068
  38.2439113  37.4764823   7.4392797  44.4257467  38.9927675   5.8793406
  44.8340823  38.5510086   5.1348039  43.7034728  38.4180303   6.1327599
  43.9287982  31.5904650   4.9108137  43.6848914  32.3446711   4.3742413
  44.2047913  31.9689998   5.7455384  45.8826445  38.1343263   3.5885402
  46.0943340  38.7775022   2.9119784  45.8356193  37.3005579   3.1207333
  37.6863491  34.0038183   8.0836555  37.0562152  34.6854464   8.3171952
  37.5799579  33.8921264   7.1389693  46.9972273  41.0115218   1.7607760
  47.8189717  40.6095405   1.4790441  46.9934676  40.9083452   2.7123876
  40.7628876  40.5599261   3.9168470  40.8273309  41.0219668   4.7526642
  40.0539800  39.9296626   4.0450780  55.0878266  37.3553966  -1.8907269
  54.3341974  36.7861365  -2.0463264  55.2225807  37.3216631  -0.9436634
  36.9644234  28.3058949  10.4461806  36.5711179  27.7525147  11.1209450
  37.7810374  28.6169527  10.8368323  39.8812195  29.7216828   8.0382062
  40.6221908  30.3223981   7.9586525  40.1130118  28.9794465   7.4800105
  35.0253533  34.9073195   6.3160292  34.9107048  34.0058452   6.6167391
  34.1698050  35.1536892   5.9645109  42.1045370  42.8490935   7.9147793
  41.6609225  42.0627314   7.5968697  42.7662584  43.0370086   7.2491683
  36.8632492  44.3786737   2.4408471  37.4139917  44.2503800   1.6685465
  36.0243968  44.6781626   2.0903364  44.2026609  43.1293735   5.9429194
  44.1845084  43.9502616   5.4509463  45.1246529  43.0047810   6.1679335
  40.6599663  40.6437865   6.7852702  41.1927999  39.8826153   6.5552010
  40.1313744  40.3511516   7.5276857  47.0045221  37.9672878  -0.5861439
  46.3468896  38.6572139  -0.4981311  47.8085621  38.3569310  -0.2427453
  43.4344675  34.3864167   4.5145546  43.7894062  34.6135640   5.3740011
  44.0816806  34.7182544   3.8922801  49.1911791  39.5759130   0.2306146
  49.6248298  39.4834419   1.0789200  49.9043372  39.5516630  -0.4073838
  42.9239686  43.1761224   1.7639247  42.9776708  43.7452160   2.5316963
  42.0554467  43.3463109   1.3993284  50.0527341  39.6182831   2.7639032
  50.2463231  40.5228641   3.0098306  49.9527959  39.1590250   3.5977617
  45.1142449  39.7689573   8.3379912  44.9627956  39.5400125   7.4209996
  45.1047129  40.7260175   8.3511257  41.8827786  37.3421486   3.3226179
  42.8119846  37.4932646   3.1495146  41.4618816  37.4305507   2.4674825
  40.6816118  41.3672151   1.0924716  40.5427203  40.9990935   1.9650654
  39.8930714  41.8819790   0.9208674  46.8234656  42.8008696   6.4156394
  46.7647202  42.1167916   5.7486977  47.2254174  43.5427686   5.9637020
  35.8425355  49.6170610  -0.7909887  36.0821953  50.2489134  -0.1130869
  34.9994551  49.2658650  -0.5044528  46.8252063  40.7648280   4.6470374
  45.9378842  40.4274202   4.7696773  47.3950614  40.0331311   4.8839139
  40.3553217  45.4249732   1.6131617  40.2823388  46.2304704   2.1250921
  39.9130610  45.6241698   0.7879638  51.3069404  36.1756497  -0.5913065
  51.2959280  37.0581213  -0.9619132  50.4386783  35.8228048  -0.7858528
  42.8151900  45.3236566   3.7689776  43.5279872  45.9584031   3.6965677
  42.3241929  45.4200432   2.9529777  37.8663814  43.0731010   4.5895346
  38.5673273  43.7067493   4.7424741  37.3958929  43.4145741   3.8290986
  45.6665100  35.6275617   2.4147897  45.0136550  35.8751525   1.7600349
  46.0445480  34.8139755   2.0810374  42.6272274  45.6635310  -3.4823933
  42.8094668  44.8456966  -3.0196181  43.4505260  45.8803003  -3.9199043
  41.7152673  36.3695428   8.9013934  41.0393310  36.2689558   9.5716309
  42.5380307  36.2134642   9.3649931  40.4575456  47.6762356   3.1371550
  41.0093764  47.8393977   3.9020635  40.7981649  48.2666793   2.4651575
  45.3086330  42.5023613   8.9920204  45.8526234  43.1153571   8.4975159
  44.7273175  43.0603192   9.5087217  43.5943843  45.6244331   0.1235232
  43.4694982  44.8234071  -0.3853823  44.2522934  46.1190525  -0.3650798
  45.6578751  43.4253351   1.7514782  44.7109087  43.3058702   1.6793109
  46.0061524  42.5375849   1.8341043  46.2659306  44.0434626  -0.9615993
  47.1905854  43.8377488  -1.0991542  46.0974610  43.7951027  -0.0526651
  40.6041267  45.2420837   5.1520204  40.9128393  44.9969984   6.0242904
  41.4016749  45.4467476   4.6639074  40.6261879  47.3958747  -2.6174419
  40.1866869  46.9035126  -1.9241563  41.3769996  46.8531715  -2.8582344
  38.1460279  31.4178544   9.0480388  38.1948434  32.2940667   8.6658158
  38.6882793  30.8755937   8.4752032  48.6315124  41.9619667   8.3281525
  47.8410668  41.9443806   7.7886025  48.3948479  42.5007961   9.0830562
  48.7512999  38.8112134   5.6414254  48.8011004  38.6462141   6.5829777
  48.6426923  37.9439393   5.2512135  46.0416762  34.7943062   6.9573561
  46.9426625  34.6549527   6.6657559  46.1164736  34.9597516   7.8971738
  40.3759567  32.1709916   5.8026747  39.5062877  32.4643482   5.5309336
  40.6119047  32.7550361   6.5234011  50.2531196  41.2309075   5.8856276
  49.9616005  41.5939056   6.7219737  49.6403328  40.5176083   5.7069608
  51.4526879  38.7961955  -1.5941154  52.2873770  39.2351759  -1.4303594
  51.5886007  38.3200608  -2.4132908  48.5018384  36.3541690   4.3536334
  48.9772506  36.5469336   3.5455185  47.5783950  36.4100876   4.1079717
  47.2020053  33.2307450   2.5864639  48.1537476  33.3305548   2.6076863
  47.0323504  32.4385718   3.0962724  49.6808131  36.4513570   1.7006939
  49.6484451  35.5129570   1.8866623  50.2908755  36.5297606   0.9672764
  49.8302620  33.2424613   1.7465222  49.3141668  32.4583070   1.5595151
  50.7142568  32.9143330   1.9111741  55.4984681  37.5129576   0.8412976
  56.2288070  37.2514865   1.4020679  54.8891627  36.7758298   0.8815044
  53.5799978  35.6537439   1.4387427  52.8533142  35.5193404   0.8303918
  53.1647265  35.9614268   2.2444145  41.4030155  39.3727369   9.2034800
  42.3233164  39.5505968   9.3974846  41.3679738  38.4283414   9.0514499
  39.2720093  32.8561609  11.2360330  39.1716819  33.8055966  11.1672421
  39.0541635  32.5279848  10.3636400  39.1351363  36.2858748  10.0525392
  38.6518444  37.0859108  10.2589281  39.2212302  36.2966693   9.0992836
  35.6524082  38.7464399   4.6564623  36.4716971  39.2408477   4.6799460
  35.9260890  37.8296367   4.6282191  36.5744055  46.6152219  -0.6817534
  36.4576439  47.5597652  -0.7838844  35.7536501  46.3125781  -0.2931735
  43.4312389  40.1483380  10.8548961  44.3003548  40.3224032  10.4935596
  42.9519140  40.9677797  10.7324690  37.5998569  47.2680481   2.5338394
  38.5025816  47.3004091   2.8504889  37.3735939  46.3380932   2.5484730
  39.3552171  46.0211468  -0.8051527  38.4047802  46.0213329  -0.9187155
  39.6584657  45.2744202  -1.3215492  35.2456487  30.2270150   9.4531834
  36.1087949  29.8706954   9.6635159  34.6721898  29.8884044  10.1407239
  55.0904864  51.8572006   0.2594235  55.7283274  51.7378753  -0.4442425
  54.9725707  52.8052850   0.3182187  51.8994571  51.8099434   0.1955760
  51.5613082  51.6940499  -0.6923705  52.7684339  51.4090599   0.1756766
  47.7581386  53.6634910  -3.8147349  47.1946251  53.5724847  -4.5831061
  47.6433781  52.8434815  -3.3344857  52.3814354  52.9634286   6.1541966
  52.3702994  52.5687084   5.2822469  52.5434993  52.2300358   6.7475737
  45.3045818  55.1586102  -0.9763129  46.0967110  54.8176927  -1.3916829
  45.5442468  55.2681077  -0.0560975  47.2636572  54.4195015  -8.1045750
  48.0367448  53.8724002  -8.2432874  47.6161971  55.2839265  -7.8931288
  49.1021615  55.7471398   5.1021149  48.8111481  56.6517028   4.9867816
  49.7378599  55.7887925   5.8165219  50.0277822  53.1248246   1.6922509
  50.6241394  52.9004269   0.9779472  50.0852793  52.3832992   2.2947957
  54.6446133  49.5823460  -2.6652557  55.4309222  49.1642883  -3.0162140
  54.9084837  50.4869552  -2.4970908  60.0454560  49.5198693  -1.7619578
  60.7779732  48.9497910  -1.5281749  59.2893916  49.1320293  -1.3213073
  49.3199139  52.4815787  -8.2702925  49.2035397  51.8060691  -7.6021841
  49.4301399  51.9948161  -9.0870772  51.6630680  51.9425935  -4.5656236
  51.2988887  51.4156555  -3.8543314  52.5197796  51.5524404  -4.7389750
  57.5679980  43.2320267   2.6975030  57.2363305  44.1015678   2.4736245
  56.9725594  42.9156551   3.3769061  54.0611500  55.4332813   2.0970943
  53.7612223  56.3357852   1.9886750  53.7162559  55.1664996   2.9492096
  47.5123981  51.8846610  -1.8692352  46.5874478  51.7522824  -1.6614661
  47.7608395  52.6640829  -1.3722410  57.4608644  47.9515353  -0.2231619
  56.5525521  47.8830762  -0.5172859  57.4096239  48.4287298   0.6050206
  51.2825388  49.4273492  -8.5848220  51.1625013  49.8730542  -7.7462740
  50.5877976  49.7758809  -9.1434682  44.8732792  51.5279883  -1.0348563
  45.0025174  51.7814362  -0.1209152  44.1930244  52.1207591  -1.3543908
  49.0432280  62.1977133  -4.9358089  48.9656309  63.1484959  -4.8569609
  48.4393923  61.8523006  -4.2783163  51.5349509  49.3704999   7.7203278
  50.7582843  49.9298919   7.7106142  52.1740072  49.8561782   8.2418148
  59.3270290  46.1531792   1.5546254  58.6844670  46.4464325   0.9086049
  58.8225219  46.0384712   2.3599451  56.9810454  49.8994965  -7.7567886
  57.8928310  50.1322352  -7.9320189  56.4720101  50.4832009  -8.3192808
  49.7895882  52.1790452   7.2821245  50.5310566  52.7175496   7.0056068
  49.0832867  52.8056741   7.4392797  55.2651221  54.3219593   5.8793406
  55.6734577  53.8802003   5.1348039  54.5428483  53.7472220   6.1327599
  51.6182291  49.2592199   3.2526963  52.4643487  49.6831613   3.3961612
  51.5580929  48.6025824   3.9465526  55.5880036  54.8820783  -0.3654305
  54.9588898  55.0466497  -1.0678237  55.2005698  55.2962393   0.4056659
  59.4669268  55.8175221  -3.0109941  58.7820306  56.1974123  -3.5612908
  59.5513117  56.4270548  -2.2777993  54.7681737  46.9196568   4.9108137
  54.5242669  47.6738628   4.3742413  55.0441667  47.2981915   5.7455384
  56.7220200  53.4635180   3.5885402  56.9337095  54.1066940   2.9119784
  56.6749948  52.6297497   3.1207333  54.3246428  46.0753001   0.4921975
  53.4630908  46.3734254   0.7838712  54.3508863  46.2923400  -0.4396993
  51.1407998  54.6195191  -3.1004220  51.6046343  54.8982894  -3.8899597
  50.8764796  53.7178636  -3.2831129  48.0332079  54.1666673  -0.1624456
  48.6033436  54.5953941  -0.8006972  48.6240191  53.8849258   0.5359729
  50.0776884  50.7418344  -6.2914655  50.7800927  51.1939387  -5.8240728
  49.7457512  50.1002163  -5.6634761  48.5257245  49.3330100   8.0836555
  47.8955906  50.0146381   8.3171952  48.4193333  49.2213182   7.1389693
  43.8202218  49.0001896  -0.9897521  43.0301272  49.2559425  -1.4657410
  44.3113465  49.8150234  -0.8845481  57.8366027  56.3407136   1.7607760
  58.6583471  55.9387323   1.4790441  57.8328430  56.2375370   2.7123876
  45.7716963  49.3646476  -4.0314044  44.9748127  49.4765170  -3.5130549
  45.5442555  49.7033128  -4.8973154  51.6022631  55.8891179   3.9168470
  51.6667063  56.3511586   4.7526642  50.8933555  55.2588544   4.0450780
  42.1039921  49.2532387   1.4417470  42.3547959  50.1379397   1.7075046
  42.6399469  49.0736988   0.6692562  65.9272021  52.6845884  -1.8907269
  65.1735729  52.1153282  -2.0463264  66.0619562  52.6508549  -0.9436634
  51.3170649  57.5559286  -6.2152549  51.1816323  58.4010822  -5.7867702
  51.8580461  57.7578564  -6.9786616  47.8037988  43.6350866  10.4461806
  47.4104934  43.0817065  11.1209450  48.6204129  43.9461445  10.8368323
  44.7700046  55.0734724  -5.6424624  45.2824567  55.8677975  -5.4919060
  45.4222759  54.3761015  -5.7091023  46.5794931  58.1900481  -3.5601871
  46.7561559  59.1118445  -3.7480887  47.3751764  57.8758900  -3.1307491
  50.7205949  45.0508745   8.0382062  51.4615663  45.6515898   7.9586525
  50.9523872  44.3086383   7.4800105  45.8647287  50.2365113   6.3160292
  45.7500802  49.3350370   6.6167391  45.0091805  50.4828809   5.9645109
  52.9439125  58.1782853   7.9147793  52.5002979  57.3919231   7.5968697
  53.6056339  58.3662003   7.2491683  47.7026246  59.7078655   2.4408471
  48.2533671  59.5795718   1.6685465  46.8637722  60.0073544   2.0903364
  55.0420363  58.4585653   5.9429194  55.0238838  59.2794534   5.4509463
  55.9640283  58.3339728   6.1679335  51.4993417  55.9729782   6.7852702
  52.0321754  55.2118071   6.5552010  50.9707498  55.6803434   7.5276857
  54.6663112  41.0789848   2.3146344  54.3227382  41.9691490   2.2385455
  55.0342075  40.8891506   1.4515929  42.7348963  53.4023379  -4.8665054
  43.5724185  53.8120387  -5.0831346  42.9127230  52.4622821  -4.8964860
  54.6313395  51.0698459  -9.1781221  54.1160018  51.8403064  -8.9392833
  54.3590703  50.3963596  -8.5548159  52.2160506  45.9148160  -4.1195982
  51.3602102  45.5255011  -4.2990344  52.6287458  45.9940121  -4.9796197
  53.7459653  43.4494503   0.2795577  53.2424448  43.4124639  -0.5336617
  54.0390259  44.3587246   0.3392234  49.9902538  43.5333233  -0.7138241
  50.8555535  43.3376042  -1.0732351  50.0580047  43.3043585   0.2131116
  54.4199698  48.9425551  -7.3521440  54.1149834  49.2571701  -6.5011296
  55.3730140  49.0206971  -7.3094107  52.8646130  55.1015775  -5.7028486
  52.3367491  54.3668534  -6.0155248  52.3633633  55.8790451  -5.9488517
  57.8438976  53.2964795  -0.5861439  57.1862650  53.9864057  -0.4981311
  58.6479375  53.6861227  -0.2427453  47.5964857  45.7635441  -3.3421874
  48.1708609  45.5410623  -4.0748681  48.1835840  45.8324136  -2.5893273
  56.6544435  51.6509168  -2.5357498  57.1676316  52.2839160  -2.0335788
  57.3045659  51.0510364  -2.9014138  53.1325266  49.1258624  -0.2899157
  52.2147827  49.3473571  -0.4477469  53.5485409  49.2004934  -1.1487450
  53.9160313  50.5250039  -5.1596477  54.6632132  51.0371436  -5.4689355
  54.1851903  50.2034092  -4.2992083  52.1886963  53.0208580  -8.1769523
  51.2798183  52.7367613  -8.0797053  52.2182047  53.4407659  -9.0366216
  57.4206231  56.6315169  -4.4078355  56.9668558  55.7906079  -4.3513164
  56.7900198  57.2676568  -4.0703575  56.3639150  47.5607155  -3.1777688
  55.6261907  47.0484542  -2.8467445  56.6165924  47.1207537  -3.9894411
  55.8639170  58.4691666  -3.4728537  56.1562145  59.0296723  -4.1916171
  56.3737791  58.7620227  -2.7175378  56.4650778  40.3383407  -2.5835918
  56.7709655  39.4780771  -2.8710003  57.1903383  40.9301028  -2.7836924
  42.7575134  50.7414094  -4.1954320  42.5599534  50.1483455  -4.9203254
  42.2021798  50.4366304  -3.4778382  50.7371858  50.6337201  -2.0759727
  50.7920467  49.6811037  -2.1517251  49.9263060  50.7896640  -1.5918429
  48.6764217  49.2514260  -4.3169348  47.8632083  49.5508431  -3.9104156
  49.1723212  48.8569949  -3.5994866  50.8272795  59.2472017  -2.3835084
  50.7848974  59.4732864  -3.3126552  51.7435494  59.0135392  -2.2349282
  54.2738429  49.7156085   4.5145546  54.6287817  49.9427558   5.3740011
  54.9210560  50.0474462   3.8922801  60.0036166  52.8374521  -4.7805125
  59.8654065  53.0276117  -5.7083936  59.6472385  53.5993903  -4.3237074
  48.1678292  46.8232616   1.2991887  48.8077672  46.6821375   0.6014850
  47.3355823  46.5367129   0.9230489  60.0305546  54.9051048   0.2306146
  60.4642052  54.8126337   1.0789200  60.7437126  54.8808548  -0.4073838
  48.9438596  56.1235046  -2.5873121  49.7379195  55.6285366  -2.7890546
  48.2330289  55.5952909  -2.9505415  53.7633441  58.5053142   1.7639247
  53.8170463  59.0744078   2.5316963  52.8948222  58.6755027   1.3993284
  45.1706909  46.7932941  -3.9235127  45.4313726  47.7078274  -4.0325966
  45.9924081  46.3257383  -3.7738514  46.6431834  48.2070698   3.2463698
  47.3154887  47.9988060   2.5976347  45.8161621  48.0092784   2.8068930
  60.8921095  54.9474748   2.7639032  61.0856985  55.8520559   3.0098306
  60.7921713  54.4882167   3.5977617  52.5457406  44.8332639   5.2629359
  51.8985321  45.5322589   5.1693835  53.3158421  45.2668783   5.6305607
  55.9536204  55.0981491   8.3379912  55.8021710  54.8692043   7.4209996
  55.9440883  56.0552092   8.3511257  52.7221540  52.6713404   3.3226179
  53.6513600  52.8224563   3.1495146  52.3012570  52.7597425   2.4674825
  51.5209872  56.6964068   1.0924716  51.3820958  56.3282853   1.9650654
  50.7324468  57.2111708   0.9208674  53.0715087  56.0745671  -1.5186446
  52.7364920  56.0346441  -0.6228796  52.5719033  55.4090387  -1.9916036
  47.0459331  51.4813301   4.0066135  46.9079129  50.7493540   4.6077674
  47.9564255  51.3922201   3.7250323  49.6741632  51.1933260   3.4949815
  50.3841250  50.5526452   3.4536433  49.6310940  51.4446155   4.4175996
  57.6628411  58.1300614   6.4156394  57.6040957  57.4459834   5.7486977
  58.0647929  58.8719604   5.9637020  48.3870566  48.1798478   5.3145454
  47.8507923  47.7289217   5.9667051  47.7987274  48.3144387   4.5715919
  46.6819109  64.9462527  -0.7909887  46.9215708  65.5781052  -0.1130869
  45.8388306  64.5950567  -0.5044528  57.6645818  56.0940198   4.6470374
  56.7772597  55.7566119   4.7696773  58.2344369  55.3623229   4.8839139
  39.3174965  52.4264289  -2.0286575  40.0046005  52.1126019  -2.6165560
  39.1623094  53.3305654  -2.3019324  44.1209687  47.3154486   2.3998449
  44.0367876  46.7080155   1.6648859  43.2992394  47.8063504   2.4007945
  51.1946971  60.7541650   1.6131617  51.1217143  61.5596621   2.1250921
  50.7524364  60.9533616   0.7879638  50.9836751  59.9913420  -4.8765562
  50.2004273  60.5335100  -4.7827337  51.6829496  60.5087400  -4.4771320
  54.2933401  45.8008049  -2.2331356  54.7902101  45.0478012  -2.5530286
  53.5220382  45.8372366  -2.7988147  62.1463158  51.5048415  -0.5913065
  62.1353035  52.3873130  -0.9619132  61.2780538  51.1519966  -0.7858528
  53.6545655  60.6528484   3.7689776  54.3673627  61.2875949   3.6965677
  53.1635683  60.7492350   2.9529777  55.3763182  54.5579737  -4.6592933
  54.4419460  54.6781199  -4.8288228  55.5539850  53.6552203  -4.9232923
  50.8768370  47.9425432  -2.5059672  50.5066157  47.3896473  -1.8178766
  51.3727462  47.3383566  -3.0584672  58.7635733  50.3997056  -4.1242899
  59.2296185  51.2325047  -4.1982596  59.2143234  49.9342037  -3.4197640
  48.7057568  58.4022927   4.5895346  49.4067028  59.0359410   4.7424741
  48.2352683  58.7437659   3.8290986  56.7352396  42.7677643  -0.0851997
  55.8215476  42.9981870   0.0830210  57.1645497  42.8516087   0.7662035
  56.5058854  50.9567535   2.4147897  55.8530304  51.2043442   1.7600349
  56.8839234  50.1431673   2.0810374  53.4666028  60.9927228  -3.4823933
  53.6488423  60.1748884  -3.0196181  54.2899014  61.2094920  -3.9199043
  52.5546427  51.6987346   8.9013934  51.8787064  51.5981475   9.5716309
  53.3774061  51.5426560   9.3649931  44.3025286  57.9359282   1.5226449
  44.8878723  57.1902970   1.6554353  44.1050125  58.2463239   2.4063113
  47.1563942  60.9710530  -3.4611109  46.4874317  61.4556657  -3.9447069
  47.0176811  61.2179750  -2.5467730  38.8942941  50.5064883   0.2430892
  38.9327041  49.9728473   1.0368010  38.3883234  49.9800088  -0.3758131
  51.2969210  63.0054273   3.1371550  51.8487518  63.1685895   3.9020635
  51.6375404  63.5958711   2.4651575  46.2733703  45.3529423   3.7393434
  46.3375030  46.2144254   3.3270832  46.2100824  44.7403425   3.0065793
  45.7485976  47.4252556   7.3866469  46.3758015  47.0429633   8.0003993
  44.8913895  47.2066758   7.7522161  56.1480084  57.8315531   8.9920204
  56.6919988  58.4445489   8.4975159  55.5666929  58.3895109   9.5087217
  54.4337597  60.9536249   0.1235232  54.3088737  60.1525989  -0.3853823
  55.0916689  61.4482442  -0.3650798  46.0545766  47.3084981  -0.6987628
  45.3332351  47.9220949  -0.8380155  46.8439021  47.8442746  -0.7770982
  56.4972506  58.7545269   1.7514782  55.5502841  58.6350620   1.6793109
  56.8455279  57.8667767   1.8341043  48.8572079  44.6439408   5.5753024
  49.3806481  44.8901704   6.3379333  48.6384412  45.4759443   5.1556161
  53.5018939  58.5497985  -2.0480866  53.3543902  57.6214693  -1.8673296
  54.3272433  58.5718076  -2.5323791  47.3681183  47.2016052  -6.1900374
  47.7077256  47.7301974  -6.9121765  47.8153304  47.5396458  -5.4141807
  57.1053061  59.3726544  -0.9615993  58.0299608  59.1669405  -1.0991542
  56.9368364  59.1242945  -0.0526651  50.0624624  45.5853103   3.2602694
  49.7221445  44.7860916   3.6623374  49.3563631  45.8854814   2.6879528
  50.7141096  42.6702415   1.7130017  51.5367165  42.1962894   1.5908908
  50.9579160  43.4492899   2.2128704  53.4980453  46.4035823  -7.0548749
  53.7144068  47.2860461  -7.3559920  53.0174521  46.0122036  -7.7843107
  48.2379675  49.3621536  -0.4778004  48.0924256  49.6761839   0.4146278
  47.7604878  49.9806436  -1.0307105  50.0976058  46.3524084  -0.4297114
  50.0837626  45.4565177  -0.7664816  50.8148486  46.3594748   0.2041172
  51.9502188  46.7861424   1.6156013  51.6919966  47.7078495   1.6140344
  51.4187229  46.3891859   2.3056477  42.7125337  51.9026880   2.4609657
  42.1678805  52.6786688   2.5929932  43.5904687  52.2497685   2.3028779
  49.5012954  45.2338464  -5.1609544  49.6228865  44.3055110  -4.9618657
  49.2114996  45.2477150  -6.0731229  52.3704144  42.9193375  -2.0242824
  52.3925841  42.9832708  -2.9790845  52.7872203  42.0797883  -1.8302318
  62.7487768  52.6548634  -3.9863602  63.1918914  51.9055960  -4.3844479
  61.8714279  52.6458771  -4.3689870  43.4991359  51.0296777   5.3539814
  42.7573095  51.1779412   5.9404445  43.1784103  51.2905042   4.4906564
  51.4435021  60.5712755   5.1520204  51.7522148  60.3261902   6.0242904
  52.2410504  60.7759393   4.6639074  51.4655634  62.7250665  -2.6174419
  51.0260624  62.2327043  -1.9241563  52.2163750  62.1823632  -2.8582344
  43.9447973  58.9162205  -2.6149791  44.7705992  58.6165977  -2.9951148
  43.5942025  58.1469828  -2.1660003  48.9129506  58.2688674  -0.5452118
  48.2909515  57.6059379  -0.8449890  49.5834373  58.2949806  -1.2278470
  42.1456578  56.8348532  -1.6560858  41.3088486  56.4070706  -1.8376856
  42.1180223  57.0280975  -0.7190066  48.9854033  46.7470462   9.0480388
  49.0342189  47.6232584   8.6658158  49.5276547  46.2047855   8.4752032
  59.4708879  57.2911585   8.3281525  58.6804423  57.2735724   7.7886025
  59.2342233  57.8299879   9.0830562  59.5906754  54.1404051   5.6414254
  59.6404759  53.9754059   6.5829777  59.4820677  53.2731310   5.2512135
  48.4743013  56.8192597  -7.0693657  48.6231133  57.5028061  -7.7226984
  49.2809456  56.7997687  -6.5544201  56.8810516  50.1234979   6.9573561
  57.7820379  49.9841444   6.6657559  56.9558491  50.2889434   7.8971738
  51.2153322  47.5001834   5.8026747  50.3456631  47.7935400   5.5309336
  51.4512802  48.0842279   6.5234011  61.0924951  56.5600993   5.8856276
  60.8009759  56.9230973   6.7219737  60.4797082  55.8468001   5.7069608
  62.2920633  54.1253873  -1.5941154  63.1267524  54.5643677  -1.4303594
  62.4279762  53.6492526  -2.4132908  59.3412139  51.6833607   4.3536334
  59.8166261  51.8761254   3.5455185  58.4177704  51.7392793   4.1079717
  46.2295646  52.8457775  -6.0632588  45.9841688  51.9420105  -5.8652378
  46.3991560  52.8474925  -7.0053110  53.9192355  43.7181451   3.3192167
  54.4374299  44.4542478   2.9938656  53.5647488  44.0245444   4.1538927
  54.1704950  40.1381734  -1.1606936  54.4506703  39.4704923  -0.5346509
  54.9555557  40.3310829  -1.6732272  58.0413808  48.5599368   2.5864639
  58.9931231  48.6597465   2.6076863  57.8717258  47.7677636   3.0962724
  56.0628187  45.6454951   2.7724040  55.4678120  45.9259963   2.0770529
  55.7777884  46.1348852   3.5440781  60.5201886  51.7805487   1.7006939
  60.4878206  50.8421488   1.8866623  61.1302509  51.8589524   0.9672764
  60.6696374  48.5716531   1.7465222  60.1535423  47.7874987   1.5595151
  61.5536323  48.2435247   1.9111741  58.3307101  42.3157546  -2.2938965
  58.1331922  42.0072634  -1.4095633  58.9406807  43.0419185  -2.1641035
  66.3378436  52.8421494   0.8412976  67.0681824  52.5806782   1.4020679
  65.7285381  52.1050216   0.8815044  64.4193733  50.9829357   1.4387427
  63.6926896  50.8485322   0.8303918  64.0041020  51.2906185   2.2444145
  52.2423909  54.7019286   9.2034800  53.1626919  54.8797885   9.3974846
  52.2073492  53.7575332   9.0514499  41.4606074  49.8957880  -1.8711926
  41.1408858  49.0423188  -2.1637552  40.9139502  50.1106458  -1.1153958
  45.2385982  52.6120321   1.8457581  45.4571991  53.5437429   1.8645615
  45.6511756  52.2528295   2.6312385  54.0880748  42.1966453  -4.5442434
  54.6411786  42.6161907  -3.8852411  54.3250834  41.2702201  -4.5019478
  50.1113847  48.1853527  11.2360330  50.0110574  49.1347884  11.1672421
  49.8935389  47.8571766  10.3636400  41.3294334  53.5160791   0.0981196
  40.6357806  53.1014744  -0.4148850  42.0767325  53.5581328  -0.4985385
  57.4659555  44.3066978  -5.0363770  56.8858224  44.9651782  -5.4185717
  57.1995488  43.4844323  -5.4476352  55.9163121  43.7072036  -2.8342449
  56.4162900  43.8188571  -3.6428131  56.5598729  43.4033089  -2.1941641
  49.9745117  51.6150666  10.0525392  49.4912199  52.4151026  10.2589281
  50.0606056  51.6258610   9.0992836  43.2431077  53.4479045  -2.0252789
  43.2201765  53.5466733  -2.9770906  43.5531713  54.2944196  -1.7035623
  45.9018455  55.5055200   2.0893825  46.8561708  55.4739143   2.0223757
  45.7030978  55.0445824   2.9044051  46.4917837  54.0756316   4.6564623
  47.3110726  54.5700395   4.6799460  46.7654644  53.1588284   4.6282191
  56.2484433  46.4667069  -5.9807421  55.3610288  46.7516719  -6.1987227
  56.6638422  46.3060832  -6.8280145  59.5998969  46.4913590  -2.2653082
  60.3759359  46.9810042  -1.9928465  58.8747103  46.9171644  -1.8081213
  62.0371528  47.2041209  -1.2079142  62.6316018  46.9636945  -1.9185833
  62.1098111  46.4848339  -0.5805605  44.2568683  61.0474820  -0.8935977
  44.1223151  60.2875221  -1.4597979  43.8400746  61.7715720  -1.3607188
  56.2225457  51.9821605  -5.7657131  56.1660658  52.4390156  -6.6049499
  56.7753799  51.2212289  -5.9434289  60.0330263  47.7711336  -4.9407012
  59.7767197  47.3707972  -4.1098804  59.4083131  48.4855130  -5.0656873
  64.3442600  50.5107410  -2.4335720  63.7842158  50.5800599  -1.6604158
  63.7386104  50.3348394  -3.1536224  47.4137809  61.9444137  -0.6817534
  47.2970193  62.8889569  -0.7838844  46.5930255  61.6417698  -0.2931735
  41.7452751  48.4094450   5.3556820  42.3911615  47.8993404   5.8444045
  41.5369902  49.1463132   5.9300245  54.2706143  55.4775298  10.8548961
  55.1397303  55.6515950  10.4935596  53.7912895  56.2969715  10.7324690
  48.4392323  62.5972399   2.5338394  49.3419570  62.6296009   2.8504889
  48.2129693  61.6672850   2.5484730  50.1945925  61.3503385  -0.8051527
  49.2441556  61.3505247  -0.9187155  50.4978412  60.6036120  -1.3215492
  46.0850242  45.5562067   9.4531834  46.9481703  45.1998872   9.6635159
  45.5115653  45.2175962  10.1407239  63.2208108  68.2926203   6.1541966
  63.2096749  67.8979002   5.2822469  63.3828748  67.5592276   6.7475737
  59.9415369  71.0763315   5.1021149  59.6505235  71.9808946   4.9867816
  60.5772354  71.1179843   5.8165219  68.4073735  58.5612185   2.6975030
  68.0757060  59.4307596   2.4736245  67.8119348  58.2448469   3.3769061
  62.3743264  64.6996917   7.7203278  61.5976598  65.2590837   7.7106142
  63.0133827  65.1853700   8.2418148  60.6289636  67.5082370   7.2821245
  61.3704321  68.0467414   7.0056068  59.9226622  68.1348659   7.4392797
  66.1044976  69.6511510   5.8793406  66.5128332  69.2093921   5.1348039
  65.3822237  69.0764138   6.1327599  62.4576046  64.5884117   3.2526963
  63.3037241  65.0123531   3.3961612  62.3974684  63.9317741   3.9465526
  65.6075491  62.2488486   4.9108137  65.3636423  63.0030546   4.3742413
  65.8835422  62.6273833   5.7455384  59.3651000  64.6622018   8.0836555
  58.7349661  65.3438299   8.3171952  59.2587088  64.5505100   7.1389693
  54.6595972  64.3293814  -0.9897521  53.8695026  64.5851343  -1.4657410
  55.1507220  65.1442152  -0.8845481  52.9433675  64.5824305   1.4417470
  53.1941714  65.4671314   1.7075046  53.4793224  64.4028906   0.6692562
  58.6431743  58.9642784  10.4461806  58.2498688  58.4108982  11.1209450
  59.4597883  59.2753362  10.8368323  61.5599704  60.3800663   8.0382062
  62.3009417  60.9807816   7.9586525  61.7917627  59.6378301   7.4800105
  56.7041042  65.5657030   6.3160292  56.5894557  64.6642288   6.6167391
  55.8485559  65.8120727   5.9645109  63.7832879  73.5074771   7.9147793
  63.3396734  72.7211149   7.5968697  64.4450093  73.6953921   7.2491683
  62.3387172  71.3021700   6.7852702  62.8715508  70.5409988   6.5552010
  61.8101253  71.0095352   7.5276857  65.5056867  56.4081766   2.3146344
  65.1621136  57.2983408   2.2385455  65.8735829  56.2183424   1.4515929
  64.5853407  58.7786421   0.2795577  64.0818203  58.7416556  -0.5336617
  64.8784014  59.6879164   0.3392234  60.8296293  58.8625151  -0.7138241
  61.6949290  58.6667960  -1.0732351  60.8973802  58.6335503   0.2131116
  65.1132184  65.0448002   4.5145546  65.4681571  65.2719476   5.3740011
  65.7604315  65.3766379   3.8922801  59.0072047  62.1524533   1.2991887
  59.6471426  62.0113293   0.6014850  58.1749577  61.8659047   0.9230489
  57.4825588  63.5362616   3.2463698  58.1548642  63.3279978   2.5976347
  56.6555375  63.3384702   2.8068930  63.3851160  60.1624557   5.2629359
  62.7379076  60.8614506   5.1693835  64.1552176  60.5960700   5.6305607
  66.7929958  70.4273409   8.3379912  66.6415465  70.1983960   7.4209996
  66.7834638  71.3844010   8.3511257  57.8853086  66.8105219   4.0066135
  57.7472884  66.0785457   4.6077674  58.7958009  66.7214119   3.7250323
  60.5135386  66.5225178   3.4949815  61.2235005  65.8818370   3.4536433
  60.4704695  66.7738073   4.4175996  59.2264320  63.5090396   5.3145454
  58.6901677  63.0581134   5.9667051  58.6381029  63.6436305   4.5715919
  50.1568719  67.7556207  -2.0286575  50.8439759  67.4417937  -2.6165560
  50.0016848  68.6597572  -2.3019324  54.9603442  62.6446404   2.3998449
  54.8761630  62.0372073   1.6648859  54.1386148  63.1355422   2.4007945
  67.5746150  58.0969561  -0.0851997  66.6609230  58.3273787   0.0830210
  68.0039252  58.1808005   0.7662035  63.3940182  67.0279264   8.9013934
  62.7180819  66.9273393   9.5716309  64.2167816  66.8718477   9.3649931
  49.7336696  65.8356800   0.2430892  49.7720795  65.3020391   1.0368010
  49.2276988  65.3092006  -0.3758131  57.1127458  60.6821341   3.7393434
  57.1768784  61.5436172   3.3270832  57.0494578  60.0695342   3.0065793
  56.5879730  62.7544473   7.3866469  57.2151769  62.3721551   8.0003993
  55.7307649  62.5358675   7.7522161  66.9873839  73.1607449   8.9920204
  67.5313743  73.7737407   8.4975159  66.4060684  73.7187027   9.5087217
  56.8939520  62.6376899  -0.6987628  56.1726106  63.2512867  -0.8380155
  57.6832776  63.1734664  -0.7770982  59.6965834  59.9731326   5.5753024
  60.2200235  60.2193622   6.3379333  59.4778167  60.8051360   5.1556161
  60.9018379  60.9145021   3.2602694  60.5615199  60.1152834   3.6623374
  60.1957385  61.2146732   2.6879528  61.5534851  57.9994333   1.7130017
  62.3760920  57.5254811   1.5908908  61.7972914  58.7784817   2.2128704
  60.9369812  61.6816002  -0.4297114  60.9231381  60.7857095  -0.7664816
  61.6542240  61.6886665   0.2041172  62.7895943  62.1153342   1.6156013
  62.5313721  63.0370413   1.6140344  62.2580983  61.7183776   2.3056477
  53.5519091  67.2318798   2.4609657  53.0072560  68.0078606   2.5929932
  54.4298441  67.5789603   2.3028779  63.2097899  58.2485292  -2.0242824
  63.2319595  58.3124626  -2.9790845  63.6265958  57.4089801  -1.8302318
  54.3385113  66.3588694   5.3539814  53.5966849  66.5071330   5.9404445
  54.0177858  66.6196960   4.4906564  59.8247788  62.0762379   9.0480388
  59.8735943  62.9524502   8.6658158  60.3670302  61.5339772   8.4752032
  67.7204271  65.4526897   6.9573561  68.6214134  65.3133362   6.6657559
  67.7952245  65.6181352   7.8971738  62.0547076  62.8293752   5.8026747
  61.1850386  63.1227318   5.5309336  62.2906556  63.4134197   6.5234011
  64.7586110  59.0473369   3.3192167  65.2768054  59.7834396   2.9938656
  64.4041243  59.3537362   4.1538927  65.0098704  55.4673651  -1.1606936
  65.2900458  54.7996840  -0.5346509  65.7949311  55.6602747  -1.6732272
  66.9021942  60.9746868   2.7724040  66.3071874  61.2551881   2.0770529
  66.6171639  61.4640769   3.5440781  63.0817664  70.0311204   9.2034800
  64.0020673  70.2089803   9.3974846  63.0467247  69.0867249   9.0514499
  52.2999829  65.2249798  -1.8711926  51.9802613  64.3715106  -2.1637552
  51.7533257  65.4398376  -1.1153958  56.0779736  67.9412239   1.8457581
  56.2965746  68.8729346   1.8645615  56.4905510  67.5820213   2.6312385
  60.9507602  63.5145444  11.2360330  60.8504328  64.4639801  11.1672421
  60.7329144  63.1863683  10.3636400  52.1688089  68.8452709   0.0981196
  51.4751560  68.4306662  -0.4148850  52.9161080  68.8873246  -0.4985385
  60.8138872  66.9442583  10.0525392  60.3305953  67.7442943  10.2589281
  60.8999811  66.9550528   9.0992836  56.7412209  70.8347118   2.0893825
  57.6955463  70.8031060   2.0223757  56.5424733  70.3737742   2.9044051
  57.3311591  69.4048234   4.6564623  58.1504480  69.8992313   4.6799460
  57.6048399  68.4880202   4.6282191  52.5846505  63.7386368   5.3556820
  53.2305369  63.2285322   5.8444045  52.3763657  64.4755050   5.9300245
  65.1099898  70.8067215  10.8548961  65.9791057  70.9807868  10.4935596
  64.6306649  71.6261632  10.7324690  56.9243996  60.8853985   9.4531834
  57.7875458  60.5290790   9.6635159  56.3509407  60.5467880  10.1407239
  69.4825497  74.2934702  10.4461806  69.0892443  73.7400900  11.1209450
  70.2991638  74.6045280  10.8368323  67.7637751  76.2145903   9.4531834
  68.6269212  75.8582707   9.6635159  67.1903162  75.8759797  10.1407239
  63.2208109  45.2988326  -7.1212728  63.2096750  44.9041124  -7.9932224
  63.3828749  44.5654399  -6.5278956  59.9415371  48.0825438  -8.1733544
  59.6505237  48.9871069  -8.2886878  60.5772355  48.1241965  -7.4589474
  62.3743265  41.7059039  -5.5551416  61.5976599  42.2652959  -5.5648551
  63.0133828  42.1915822  -5.0336545  60.6289637  44.5144493  -5.9933449
  61.3704322  45.0529536  -6.2698625  59.9226623  45.1410781  -5.8361897
  66.1044977  46.6573633  -7.3961287  66.5128333  46.2156044  -8.1406655
  65.3822239  46.0826260  -7.1427094  65.6075493  39.2550608  -8.3646556
  65.3636424  40.0092669  -8.9012281  65.8835423  39.6335956  -7.5299309
  59.3651001  41.6684141  -5.1918139  58.7349662  42.3500422  -4.9582742
  59.2587089  41.5567222  -6.1365000  58.6431744  35.9704907  -2.8292888
  58.2498690  35.4171105  -2.1545243  59.4597884  36.2815485  -2.4386370
  61.5599705  37.3862786  -5.2372631  62.3009418  37.9869939  -5.3168168
  61.7917628  36.6440423  -5.7954588  56.7041043  42.5719153  -6.9594401
  56.5894558  41.6704410  -6.6587302  55.8485561  42.8182850  -7.3109585
  63.7832881  50.5136893  -5.3606901  63.3396735  49.7273272  -5.6785996
  64.4450094  50.7016044  -6.0263010  62.3387173  48.3083823  -6.4901991
  62.8715510  47.5472111  -6.7202683  61.8101254  48.0157474  -5.7477837
  65.1132185  42.0510125  -8.7609148  65.4681573  42.2781598  -7.9014682
  65.7604316  42.3828502  -9.3831892  66.7929960  47.4335531  -4.9374781
  66.6415466  47.2046083  -5.8544698  66.7834639  48.3906133  -4.9243436
  63.3940183  44.0341386  -4.3740760  62.7180820  43.9335515  -3.7038384
  64.2167817  43.8780600  -3.9104762  66.9873840  50.1669571  -4.2834489
  67.5313744  50.7799529  -4.7779534  66.4060685  50.7249150  -3.7667476
  59.8247789  39.0824502  -4.2274305  59.8735944  39.9586625  -4.6096535
  60.3670303  38.5401895  -4.8002662  67.7204272  42.4589020  -6.3181133
  68.6214135  42.3195484  -6.6097135  67.7952247  42.6243474  -5.3782955
  62.0547077  39.8355874  -7.4727946  61.1850387  40.1289440  -7.7445358
  62.2906558  40.4196319  -6.7520683  63.0817665  47.0373327  -4.0719894
  64.0020674  47.2151926  -3.8779847  63.0467248  46.0929372  -4.2240194
  60.9507603  40.5207567  -2.0394363  60.8504330  41.4701924  -2.1082272
  60.7329145  40.1925806  -2.9118293  60.8138873  43.9504706  -3.2229302
  60.3305955  44.7505066  -3.0165413  60.8999812  43.9612651  -4.1761858
  57.3311592  46.4110357  -8.6190070  58.1504481  46.9054435  -8.5955233
  57.6048400  45.4942325  -8.6472503  65.1099899  47.8129338  -2.4205733
  65.9791058  47.9869990  -2.7819098  64.6306650  48.6323755  -2.5430003
  56.9243998  37.8916108  -3.8222859  57.7875459  37.5352912  -3.6119534
  56.3509408  37.5530002  -3.1347455  69.4825498  51.2996824  -2.8292888
  69.0892444  50.7463023  -2.1545243  70.2991639  51.6107403  -2.4386370
  67.7637752  53.2208025  -3.8222859  68.6269214  52.8644830  -3.6119534
  67.1903163  52.8821920  -3.1347455   1.3015905  75.8359373  40.6677053
   2.0319293  75.5744661  41.2284756   0.6922850  75.0988095  40.7079121
   5.8485784  87.8428490  38.0644499   6.5810956  87.2727707  38.2982328
   5.0925139  87.4550090  38.5051004   3.3711204  81.5550064  42.5239107
   3.0394529  82.4245475  42.3000322   2.7756817  81.2386348  43.2033138
   3.2639867  86.2745150  39.6032458   2.3556745  86.2060559  39.3091218
   3.2127463  86.7517095  40.4314283   5.1301514  84.4761589  41.3810331
   4.4875894  84.7694122  40.7350126   4.6256442  84.3614509  42.1863528
   2.7841677  88.2224762  32.0696191   3.6959534  88.4552148  31.8943888
   2.2751325  88.8061806  31.5071269  11.7303244  91.0075681  37.9356808
  10.9766953  90.4383079  37.7800813  11.8650786  90.9738345  38.8827443
   2.1670374  85.8836952  36.6486389   1.4293131  85.3714339  36.9796632
   2.4197148  85.4437334  35.8369666   2.2682002  78.6613204  37.2428159
   2.5740878  77.8010568  36.9554074   2.9934606  79.2530825  37.0427153
   7.9494382  89.8278212  39.2351012   7.9384258  90.7102927  38.8644945
   7.0811762  89.4749763  39.0405549   4.5666957  88.7226853  35.7021178
   5.0327409  89.5554844  35.6281481   5.0174457  88.2571834  36.4066437
   2.5383620  81.0907440  39.7412080   1.6246699  81.3211667  39.9094287
   2.9676721  81.1745884  40.5926112   8.5518992  90.9778431  35.8400475
   8.9950138  90.2285756  35.4419598   7.6745502  90.9688568  35.4574207
   2.6841740  88.4464776  46.7837638   3.5851603  88.3071241  46.4921636
   2.7589715  88.6119231  47.7235815   3.8445032  86.8829164  42.4128716
   4.7962455  86.9827262  42.4340940   3.6748482  86.0907433  42.9226801
   1.8659411  83.9684748  42.5988117   1.2709343  84.2489760  41.9034606
   1.5809108  84.4578649  43.3704858   6.3233110  90.1035284  41.5271016
   6.2909430  89.1651285  41.7130700   6.9333733  90.1819321  40.7936841
   6.4727598  86.8946328  41.5729299   5.9566647  86.1104784  41.3859228
   7.3567547  86.5665044  41.7375818   4.1338325  80.6387343  37.5325112
   3.9363146  80.3302431  38.4168444   4.7438031  81.3648982  37.6623042
  12.1409659  91.1651291  40.6677053  12.8713048  90.9036579  41.2284756
  11.5316605  90.4280013  40.7079121  10.2224957  89.3059154  41.2651504
   9.4958120  89.1715118  40.6567995   9.8072243  89.6135982  42.0708222
   3.2690779  82.6296775  34.7900307   2.6889448  83.2881579  34.4078360
   3.0026711  81.8074120  34.3787725   1.7194345  82.0301833  36.9921628
   2.2194123  82.1418367  36.1835946   2.3629953  81.7262886  37.6322436
   2.0515657  84.7896866  33.8456656   1.1641512  85.0746516  33.6276850
   2.4669646  84.6290629  32.9983932   5.4030193  84.8143386  37.5610995
   6.1790583  85.3039839  37.8335612   4.6778327  85.2401441  38.0182864
   7.8402751  85.5271006  38.6184935   8.4347242  85.2866742  37.9078244
   7.9129335  84.8078136  39.2458472   5.8361486  86.0941133  34.8857065
   5.5798421  85.6937769  35.7165273   5.2114354  86.8084927  34.7607204
  10.1473824  88.8337207  37.3928357   9.5873382  88.9030396  38.1659919
   9.5417328  88.6578191  36.6727853   1.3015906  52.8421496  27.3922359
   2.0319295  52.5806784  27.9530063   0.6922852  52.1050218  27.4324427
   0.8936089  67.1863925  26.8103619   1.5314499  67.0670673  26.1066959
   0.7756932  68.1344769  26.8691571   5.8485785  64.8490612  24.7889806
   6.5810957  64.2789829  25.0227635   5.0925141  64.4612213  25.2296311
   3.3711205  58.5612187  29.2484414   3.0394530  59.4307598  29.0245629
   2.7756819  58.2448471  29.9278444   3.2639869  63.2807273  26.3277764
   2.3556746  63.2122681  26.0336525   3.2127464  63.7579218  27.1559590
   5.1301515  61.4823711  28.1055638   4.4875895  61.7756244  27.4595433
   4.6256444  61.3676631  28.9108835   2.7841679  65.2286884  18.7941497
   3.6959535  65.4614271  18.6189195   2.2751326  65.8123929  18.2316576
   1.3911261  70.2112703  26.1855079   0.7620124  70.3758417  25.4831147
   1.0036923  70.6254312  26.9566043   5.2700493  71.1467141  23.5399443
   4.5851531  71.5266042  22.9896476   5.3544342  71.7562467  24.2731390
   2.5251425  68.7927100  30.1394786   2.7368320  69.4358860  29.4629167
   2.4781173  67.9589416  29.6716716   3.6397253  71.6699055  28.3117143
   4.4614696  71.2679242  28.0299825   3.6359655  71.5667289  29.2633259
  11.7303246  68.0137804  24.6602115  10.9766954  67.4445202  24.5046119
  11.8650787  67.9800468  25.6072750   0.8451588  73.7877572  32.4938578
   0.8270063  74.6086453  32.0018847   1.7671508  73.6631648  32.7188719
   5.4078894  69.1522734  19.3081336   4.6308337  68.8133893  18.8636498
   6.0870375  69.1575357  18.6336301   3.6470201  68.6256715  25.9647944
   2.9893875  69.3155976  26.0528073   4.4510600  69.0153147  26.3081931
   2.4575660  66.9801087  24.0151886   2.9707541  67.6131079  24.5173596
   3.1076884  66.3802283  23.6495246   3.2237456  71.9607089  22.1431029
   2.7699783  71.1197999  22.1996219   2.5931423  72.5968487  22.4805809
   2.1670376  62.8899075  23.3731696   1.4293132  62.3776461  23.7041939
   2.4197149  62.4499457  22.5614973   1.6670395  73.7983586  23.0780847
   1.9593370  74.3588643  22.3593212   2.1769016  74.0912147  23.8334006
   2.2682003  55.6675327  23.9673465   2.5740880  54.8072690  23.6799380
   2.9934608  56.2592947  23.7672459   5.8067391  68.1666440  21.7704258
   5.6685290  68.3568036  20.8425447   5.4503610  68.9285823  22.2272309
   5.8336771  70.2342967  26.7815530   6.2673277  70.1418256  27.6298584
   6.5468351  70.2100468  26.1435546   6.6952320  70.2766668  29.3148415
   6.8888210  71.1812478  29.5607690   6.5952938  69.8174087  30.1487000
   1.7567429  70.4273411  34.8889296   1.6052935  70.1983962  33.9719379
   1.7472108  71.3844012  34.9020641   3.4659636  73.4592533  32.9665778
   3.4072182  72.7751753  32.2996361   3.8679154  74.2011523  32.5146404
   3.4677043  71.4232117  31.1979757   2.5803822  71.0858039  31.3206156
   4.0375594  70.6915148  31.4348523   7.9494383  66.8340334  25.9596319
   7.9384260  67.7165050  25.5890252   7.0811763  66.4811885  25.7650856
   4.5666958  65.7288975  22.4266485   5.0327410  66.5616967  22.3526788
   5.0174459  65.2633957  23.1311743   2.5383621  58.0969562  26.4657386
   1.6246701  58.3273789  26.6339593   2.9676722  58.1808006  27.3171419
   2.3090079  66.2859454  28.9657280   1.6561530  66.5335362  28.3109733
   2.6870459  65.4723592  28.6319758   1.9511310  73.1607450  35.5429588
   2.4951214  73.7737409  35.0484543   1.3698154  73.7187029  36.0596601
   2.3003731  74.0837188  28.3024166   1.3534066  73.9642540  28.2302492
   2.6486504  73.1959686  28.3850427   2.9084286  74.7018463  25.5893391
   3.8330833  74.4961325  25.4517842   2.7399589  74.4534865  26.4982732
   8.5518993  67.9840554  22.5645782   8.9950139  67.2347879  22.1664905
   7.6745504  67.9750690  22.1819514   5.5846198  71.9870601  19.5739711
   6.1097522  72.3257874  18.8489031   5.4968550  71.0517616  19.3902846
   5.2740104  72.6203504  34.8790909   4.4835648  72.6027643  34.3395409
   5.0373458  73.1591798  35.6339946   5.3937979  69.4695971  32.1923638
   5.4435984  69.3045978  33.1339160   5.2851902  68.6023230  31.8021518
   2.6841741  65.4526899  33.5082944   3.5851604  65.3133364  33.2166942
   2.7589716  65.6181354  34.4481122   6.8956176  71.8892912  32.4365659
   6.6040984  72.2522893  33.2729120   6.2828307  71.1759921  32.2578991
   8.0951858  69.4545792  24.9568229   8.9298749  69.8935596  25.1205790
   8.2310987  68.9784445  24.1376475   5.1443364  67.0125527  30.9045717
   5.6197486  67.2053173  30.0964569   4.2208929  67.0684713  30.6589101
   3.8445033  63.8891287  29.1374023   4.7962456  63.9889385  29.1586247
   3.6748483  63.0969556  29.6472107   1.8659412  60.9746870  29.3233424
   1.2709345  61.2551883  28.6279912   1.5809109  61.4640771  30.0950165
   6.3233111  67.1097407  28.2516322   6.2909431  66.1713407  28.4376006
   6.9333734  67.1881443  27.5182147   6.4727599  63.9008450  28.2974606
   5.9566648  63.1166907  28.1104534   7.3567548  63.5727167  28.4621125
   4.1338326  57.6449466  24.2570418   3.9363147  57.3364554  25.1413750
   4.7438032  58.3711105  24.3868348  12.1409661  68.1713414  27.3922359
  12.8713049  67.9098702  27.9530063  11.5316606  67.4342135  27.4324427
  10.2224958  66.3121276  27.9896810   9.4958121  66.1777241  27.3813302
   9.8072245  66.6198105  28.7953528   3.2690780  59.6358898  21.5145614
   2.6889449  60.2943702  21.1323666   3.0026713  58.8136242  21.1033031
   1.7194346  59.0363955  23.7166934   2.2194125  59.1480490  22.9081253
   2.3629954  58.7325008  24.3567743   2.0515658  61.7958988  20.5701962
   1.1641513  62.0808639  20.3522157   2.4669647  61.6352751  19.7229239
   5.4030194  61.8205509  24.2856301   6.1790584  62.3101962  24.5580918
   4.6778328  62.2463563  24.7428171   7.8402753  62.5333128  25.3430242
   8.4347243  62.2928864  24.6323550   7.9129336  61.8140259  25.9703778
   2.0256682  67.3113524  20.7852252   1.9691883  67.7682075  19.9459885
   2.5785024  66.5504209  20.6075095   5.8361488  63.1003256  21.6102372
   5.5798422  62.6999892  22.4410580   5.2114356  63.8147050  21.4852511
  10.1473825  65.8399329  24.1173663   9.5873383  65.9092518  24.8905225
   9.5417329  65.6640314  23.3973159  11.7329844  82.5155843  26.8103619
  12.3708254  82.3962590  26.1066959  11.6150687  83.4636687  26.8691571
   8.5419550  82.4683271  26.7465144   8.2038062  82.3524336  25.8585679
   9.4109318  82.0674436  26.7266150   9.0239333  83.6218123  32.7051349
   9.0127974  83.2270921  31.8331853   9.1859973  82.8884196  33.2985121
   5.7446594  86.4055235  31.6530533   5.4536460  87.3100866  31.5377199
   6.3803579  86.4471762  32.3674603   6.6702801  83.7832083  28.2431893
   7.2666373  83.5588106  27.5288856   6.7277773  83.0416829  28.8457341
  11.2871112  80.2407297  23.8856827  12.0734202  79.8226720  23.5347244
  11.5509817  81.1453389  24.0538475  16.6879540  80.1782530  24.7889806
  17.4204711  79.6081747  25.0227635  15.9318895  79.7904131  25.2296311
   8.3055659  82.6009772  21.9853148   7.9413866  82.0740393  22.6966069
   9.1622775  82.2108241  21.8119633  14.2104960  73.8904104  29.2484414
  13.8788285  74.7599515  29.0245629  13.6150573  73.5740388  29.9278444
  10.7036479  86.0916650  28.6480327  10.4037202  86.9941689  28.5396134
  10.3587539  85.8248833  29.5001480  14.1033623  78.6099190  26.3277764
  13.1950501  78.5414599  26.0336525  14.0521219  79.0871135  27.1559590
   8.1774489  80.0288836  34.2712661   7.4007823  80.5882756  34.2615526
   8.8165052  80.5145619  34.7927532  15.9695270  76.8115629  28.1055638
  15.3269650  77.1048162  27.4595433  15.4650198  76.6968549  28.9108835
  13.6235433  80.5578802  18.7941497  14.5353289  80.7906189  18.6189195
  13.1145080  81.1415846  18.2316576   6.4320861  82.8374289  33.8330628
   7.1735546  83.3759333  33.5565452   5.7257847  83.4640578  33.9902180
  11.9076201  84.9803430  32.4302790  12.3159557  84.5385840  31.6857422
  11.1853462  84.4056057  32.6836983   8.2607271  79.9176037  29.8036347
   9.1068466  80.3415450  29.9470996   8.2005909  79.2609661  30.4974910
  12.2305016  85.5404620  26.1855079  11.6013878  85.7050335  25.4831147
  11.8430678  85.9546230  26.9566043  16.1094247  86.4759058  23.5399443
  15.4245286  86.8557960  22.9896476  16.1938097  87.0854385  24.2731390
  11.4106716  77.5780405  31.4617521  11.1667648  78.3322465  30.9251796
  11.6866647  77.9565753  32.2964768  13.3645179  84.1219017  30.1394786
  13.5762074  84.7650777  29.4629167  13.3174927  83.2881334  29.6716716
  10.9671408  76.7336838  27.0431358  10.1055887  77.0318092  27.3348096
  10.9933843  76.9507237  26.1112391   4.6757058  84.8250510  26.3884927
   5.2458416  85.2537778  25.7502412   5.2665170  84.5433095  27.0869113
   5.1682225  79.9913938  34.6345938   4.5380886  80.6730218  34.8681335
   5.0618313  79.8797019  33.6899077  14.4791007  86.9990973  28.3117143
  15.3008451  86.5971160  28.0299825  14.4753410  86.8959207  29.2633259
   8.2447610  86.5475016  30.4677854   8.3092043  87.0095423  31.3036026
   7.5358534  85.9172381  30.5960164  22.5697000  83.3429721  24.6602115
  21.8160708  82.7737119  24.5046119  22.7044541  83.3092386  25.6072750
   4.4462968  74.2934703  36.9971189   4.0529913  73.7400902  37.6718834
   5.2629108  74.6045282  37.3877707   7.3630929  75.7092582  34.5891446
   8.1040642  76.3099736  34.5095909   7.5948852  74.9670220  34.0309489
   2.5072267  80.8948950  32.8669676   2.3925782  79.9934207  33.1676775
   1.6516784  81.1412647  32.5154492   9.5864104  88.8366690  34.4657176
   9.1427959  88.0503069  34.1478081  10.2481318  89.0245841  33.8001067
  11.6845343  89.1169490  32.4938578  11.6663818  89.9378371  32.0018847
  12.6065263  88.9923565  32.7188719   8.1418397  86.6313619  33.3362086
   8.6746733  85.8701908  33.1061394   7.6132478  86.3387271  34.0786240
  11.3088092  71.7373685  28.8655728  10.9652361  72.6275327  28.7894838
  11.6767054  71.5475343  28.0025313   8.8585485  76.5731997  22.4313401
   8.0027082  76.1838848  22.2519040   9.2712437  76.6523958  21.5713187
  10.3884632  74.1078341  26.8304961   9.8849428  74.0708476  26.0172766
  10.6815239  75.0171083  26.8901618   6.6327518  74.1917070  25.8371143
   7.4980515  73.9959879  25.4777032   6.7005027  73.9627422  26.7640499
  16.2472649  84.4814651  19.3081336  15.4702091  84.1425811  18.8636498
  16.9264129  84.4867274  18.6336301  11.0624678  79.6009389  19.1987944
  10.7574813  79.9155538  20.0498087  12.0155120  79.6790809  19.2415277
  14.4863955  83.9548632  25.9647944  13.8287630  84.6447894  26.0528073
  15.2904355  84.3445064  26.3081931   4.2389837  76.4219278  23.2087510
   4.8133589  76.1994460  22.4760702   4.8260819  76.4907973  23.9616111
  13.2969414  82.3093005  24.0151886  13.8101296  82.9422997  24.5173596
  13.9470638  81.7094201  23.6495246   6.5412505  73.2960527  21.9362579
   5.8876917  72.9809544  21.3119194   6.4992979  72.6736268  22.6622402
   9.7750245  79.7842461  26.2610227   8.8572806  80.0057408  26.1031915
  10.1910389  79.8588771  25.4021934  10.5585293  81.1833876  21.3912907
  11.3057112  81.6955274  21.0820029  10.8276882  80.8617929  22.2517300
  14.0631210  87.2899007  22.1431029  13.6093538  86.4489916  22.1996219
  13.4325177  87.9260405  22.4805809  13.0064130  78.2190993  23.3731696
  12.2686887  77.7068379  23.7041939  13.2590904  77.7791374  22.5614973
  12.5064150  89.1275503  23.0780847  12.7987124  89.6880560  22.3593212
  13.0162770  89.4204064  23.8334006  13.1075757  70.9967245  23.9673465
  13.4134634  70.1364608  23.6799380  13.8328362  71.5884865  23.7672459
   7.3796837  81.2921038  24.4749656   7.4345447  80.3394874  24.3992133
   6.5688039  81.4480477  24.9590955  10.9163409  80.3739922  31.0654929
  11.2712796  80.6011395  31.9249395  11.5635540  80.7058299  30.4432185
  16.6461146  83.4958358  21.7704258  16.5079044  83.6859954  20.8425447
  16.2897364  84.2577741  22.2272309   4.8103272  77.4816453  27.8501270
   5.4502651  77.3405212  27.1524234   3.9780802  77.1950966  27.4739872
  16.6730525  85.5634885  26.7815530  17.1067032  85.4710174  27.6298584
  17.3862106  85.5392385  26.1435546  10.4058420  89.1636979  28.3148630
  10.4595442  89.7327915  29.0826346   9.5373201  89.3338864  27.9502667
   3.2856813  78.8654535  29.7973082   3.9579867  78.6571897  29.1485731
   2.4586600  78.6676621  29.3578314  17.5346075  85.6058585  29.3148415
  17.7281965  86.5104396  29.5607690  17.4346693  85.1466005  30.1487000
   9.1882386  75.4916476  31.8138743   8.5410301  76.1906426  31.7203219
   9.9583401  75.9252620  32.1814991  12.5961183  85.7565328  34.8889296
  12.4446690  85.5275880  33.9719379  12.5865863  86.7135930  34.9020641
   9.3646520  83.3297241  29.8735562  10.2938580  83.4808401  29.7004530
   8.9437550  83.4181262  29.0184209   8.1634852  87.3547905  27.6434100
   8.0245937  86.9866690  28.5160038   7.3749448  87.8695545  27.4718058
   9.7140067  86.7329508  25.0322938   9.3789899  86.6930278  25.9280588
   9.2144012  86.0674224  24.5593348   3.6884311  82.1397138  30.5575519
   3.5504109  81.4077377  31.1587058   4.5989234  82.0506038  30.2759707
   6.3166611  81.8517097  30.0459198   7.0266230  81.2110290  30.0045817
   6.2735920  82.1029992  30.9685379  14.3053390  88.7884451  32.9665778
  14.2465936  88.1043671  32.2996361  14.7072908  89.5303441  32.5146404
   5.0295545  78.8382315  31.8654838   4.4932902  78.3873054  32.5176434
   4.4412254  78.9728224  31.1225302  14.3070797  86.7524035  31.1979757
  13.4197576  86.4149956  31.3206156  14.8769348  86.0207066  31.4348523
  10.9358380  76.4591887  24.3178027  11.4327080  75.7061849  23.9979098
  10.1645362  76.4956203  23.7521237  18.7888138  82.1632252  25.9596319
  18.7778014  83.0456967  25.5890252  17.9205517  81.8103803  25.7650856
  10.2970634  91.3112321  30.3199159  11.0098606  91.9459786  30.2475061
   9.8060663  91.4076187  29.5039161  12.0188161  85.2163574  21.8916451
  11.0844440  85.3365036  21.7221155  12.1964830  84.3136041  21.6276461
   7.5193349  78.6009270  24.0449712   7.1491137  78.0480310  24.7330618
   8.0152442  77.9967403  23.4924712  15.4060713  81.0580893  22.4266485
  15.8721165  81.8908885  22.3526788  15.8568213  80.5925875  23.1311743
   5.3482548  89.0606765  31.1404730   6.0492007  89.6943247  31.2934124
   4.8777663  89.4021496  30.3800369  13.3777375  73.4261480  26.4657386
  12.4640455  73.6565707  26.6339593  13.8070477  73.5099924  27.3171419
  13.1483834  81.6151372  28.9657280  12.4955284  81.8627279  28.3109733
  13.5264214  80.8015510  28.6319758   9.1971407  82.3571183  35.4523317
   8.5212044  82.2565312  36.1225693  10.0199041  82.2010397  35.9159315
   2.9158683  76.0113260  30.2902818   2.9800009  76.8728091  29.8780216
   2.8525803  75.3987262  29.5575177   2.3910955  78.0836393  33.9375852
   3.0182994  77.7013470  34.5513377   1.5338874  77.8650595  34.3031545
  12.7905064  88.4899368  35.5429588  13.3344968  89.1029326  35.0484543
  12.2091909  89.0478946  36.0596601  11.0762577  91.6120086  26.6744616
  10.9513716  90.8109826  26.1655561  11.7341668  92.1066279  26.1858586
   2.6970745  77.9668819  25.8521756   1.9757331  78.5804786  25.7129229
   3.4864001  78.5026583  25.7738402  13.1397485  89.4129106  28.3024166
  12.1927821  89.2934457  28.2302492  13.4880258  88.5251604  28.3850427
   5.4997059  75.3023245  32.1262408   6.0231461  75.5485542  32.8888717
   5.2809392  76.1343280  31.7065545  10.1443919  89.2081822  24.5028518
   9.9968881  88.2798530  24.6836088  10.9697412  89.2301913  24.0185593
  13.7478040  90.0310381  25.5893391  14.6724588  89.8253242  25.4517842
  13.5793344  89.7826782  26.4982732   6.7049604  76.2436940  29.8112078
   6.3646424  75.4444753  30.2132758   5.9988610  76.5438651  29.2388911
   7.3566076  73.3286253  28.2639401   8.1792145  72.8546731  28.1418291
   7.6004139  74.1076736  28.7638087  10.1405433  77.0619660  19.4960635
  10.3569047  77.9444298  19.1949463   9.6599500  76.6705873  18.7666277
   4.8804654  80.0205373  26.0731380   4.7349235  80.3345676  26.9655661
   4.4029858  80.6390274  25.5202278   6.7401037  77.0107921  26.1212269
   6.7262606  76.1149014  25.7844567   7.4573465  77.0178585  26.7550555
   8.5927168  77.4445261  28.1665397   8.3344946  78.3662332  28.1649727
   8.0612208  77.0475696  28.8565861   6.1437933  75.8922301  21.3899839
   6.2653844  74.9638948  21.5890727   5.8539976  75.9060987  20.4778155
   9.0129124  73.5777212  24.5266559   9.0350820  73.6416545  23.5718539
   9.4297183  72.7381721  24.7207065  19.3912748  83.3132471  22.5645782
  19.8343894  82.5639797  22.1664905  18.5139258  83.3042608  22.1819514
  16.4239952  87.3162518  19.5739711  16.9491276  87.6549791  18.8489031
  16.3362305  86.3809534  19.3902846   5.6279013  77.4054299  35.5989772
   5.6767168  78.2816422  35.2167542   6.1701527  76.8631692  35.0261415
  16.1133858  87.9495422  34.8790909  15.3229402  87.9319561  34.3395409
  15.8767213  88.4883716  35.6339946  16.2331733  84.7987888  32.1923638
  16.2829738  84.6337896  33.1339160  16.1245657  83.9315147  31.8021518
  13.5235496  80.7818816  33.5082944  14.4245359  80.6425281  33.2166942
  13.5983470  80.9473271  34.4481122   7.8578301  78.1585671  32.3536131
   6.9881611  78.4519237  32.0818719   8.0937782  78.7426116  33.0743394
  17.7349930  87.2184830  32.4365659  17.4434739  87.5814811  33.2729120
  17.1222062  86.5051838  32.2578991  18.9345613  84.7837710  24.9568229
  19.7692504  85.2227514  25.1205790  19.0704741  84.3076363  24.1376475
  15.9837118  82.3417445  30.9045717  16.4591240  82.5345091  30.0964569
  15.0602684  82.3976630  30.6589101  10.5617335  74.3765288  29.8701551
  11.0799279  75.1126315  29.5448040  10.2072468  74.6829281  30.7048310
  10.8129929  70.7965571  25.3902448  11.0931683  70.1288760  26.0162874
  11.5980536  70.9894666  24.8777112  14.6838787  79.2183205  29.1374023
  15.6356210  79.3181302  29.1586247  14.5142238  78.4261473  29.6472107
  12.7053167  76.3038788  29.3233424  12.1103099  76.5843801  28.6279912
  12.4202864  76.7932689  30.0950165  17.1626865  82.4389324  28.2516322
  17.1303185  81.5005325  28.4376006  17.7727489  82.5173361  27.5182147
  17.3121354  79.2300368  28.2974606  16.7960402  78.4458824  28.1104534
  18.1961302  78.9019084  28.4621125  14.9732081  72.9741383  24.2570418
  14.7756902  72.6656472  25.1413750  15.5831786  73.7003022  24.3868348
  22.9803415  83.5005331  27.3922359  23.7106804  83.2390619  27.9530063
  22.3710361  82.7634053  27.4324427  21.0618712  81.6413194  27.9896810
  20.3351876  81.5069159  27.3813302  20.6465999  81.9490022  28.7953528
   8.8848889  85.3603123  35.7544183   9.8051898  85.5381722  35.9484230
   8.8498472  84.4159169  35.6023883   1.8810961  83.2704158  28.3966965
   2.0996971  84.2021266  28.4154998   2.2936735  82.9112133  29.1821768
   8.8015179  73.7772243  20.3842653   7.9915907  73.4319328  20.7597899
   9.4899596  73.4679787  20.9730265  10.7305727  72.8550290  22.0066950
  11.2836766  73.2745744  22.6656973  10.9675814  71.9286038  22.0489906
   6.7538827  78.8437364  37.7869714   6.6535553  79.7931721  37.7181805
   6.5360369  78.5155603  36.9145784  14.1084534  74.9650815  21.5145614
  13.5283203  75.6235619  21.1323666  13.8420467  74.1428160  21.1033031
  12.5588101  74.3655873  23.7166934  13.0587879  74.4772408  22.9081253
  13.2023709  74.0616926  24.3567743   6.6170097  82.2734503  36.6034775
   6.1337178  83.0734863  36.8098664   6.7031036  82.2842448  35.6502219
   2.5443434  86.1639037  28.6403209   3.4986688  86.1322980  28.5733141
   2.3455958  85.7029661  29.4553435   3.1342816  84.7340153  31.2074007
   3.9535705  85.2284232  31.2308844   3.4079624  83.8172122  31.1791574
  12.8909412  77.1250906  20.5701962  12.0035267  77.4100556  20.3522157
  13.3063401  76.9644669  19.7229239  16.2423949  77.1497427  24.2856301
  17.0184339  77.6393879  24.5580918  15.5172083  77.5755481  24.7428171
  18.6796507  77.8625046  25.3430242  19.2740998  77.6220782  24.6323550
  18.7523091  77.1432177  25.9703778  12.8650436  82.6405442  20.7852252
  12.8085638  83.0973993  19.9459885  13.4178779  81.8796126  20.6075095
  16.6755242  78.4295174  21.6102372  16.4192176  78.0291809  22.4410580
  16.0508110  79.1438968  21.4852511  20.9867580  81.1691247  24.1173663
  20.4267138  81.2384436  24.8905225  20.3811083  80.9932231  23.3973159
  10.9131123  86.1359135  37.4058344  11.7822282  86.3099787  37.0444979
  10.4337874  86.9553552  37.2834074   6.9081341  73.3318332  17.6590100
   6.8960011  74.2760172  17.8158371   7.8004763  73.1488477  17.3649561
  10.7233460  69.9261109  21.9136037   9.9565856  69.3719595  22.0592719
  11.1344165  69.9982977  22.7750188   2.7275221  76.2145904  36.0041218
   3.5906683  75.8582709  36.2144543   2.1540632  75.8759799  36.6916622
  27.5273294  95.5074448  24.7889806  28.2598466  94.9373665  25.0227635
  26.7712650  95.1196048  25.2296311  25.0498714  89.2196022  29.2484414
  24.7182039  90.0891433  29.0245629  24.4544328  88.9032306  29.9278444
  24.9427378  93.9391108  26.3277764  24.0344255  93.8706517  26.0336525
  24.8914973  94.4163053  27.1559590  26.8089024  92.1407546  28.1055638
  26.1663404  92.4340080  27.4595433  26.3043953  92.0260467  28.9108835
  24.4629188  95.8870720  18.7941497  25.3747044  96.1198106  18.6189195
  23.9538835  96.4707764  18.2316576  22.2500471  92.9072323  31.4617521
  22.0061403  93.6614383  30.9251796  22.5260401  93.2857670  32.2964768
  21.8065162  92.0628756  27.0431358  20.9449642  92.3610009  27.3348096
  21.8327597  92.2799155  26.1112391  33.4090755  98.6721639  24.6602115
  32.6554463  98.1029037  24.5046119  33.5438296  98.6384303  25.6072750
  15.2856722  89.6226621  36.9971189  14.8923668  89.0692820  37.6718834
  16.1022863  89.9337200  37.3877707  18.2024683  91.0384500  34.5891446
  18.9434397  91.6391653  34.5095909  18.4342606  90.2962138  34.0309489
  22.1481846  87.0665603  28.8655728  21.8046116  87.9567245  28.7894838
  22.5160809  86.8767261  28.0025313  19.6979240  91.9023915  22.4313401
  18.8420836  91.5130765  22.2519040  20.1106192  91.9815876  21.5713187
  21.2278387  89.4370258  26.8304961  20.7243182  89.4000393  26.0172766
  21.5208993  90.3463001  26.8901618  17.4721272  89.5208988  25.8371143
  18.3374269  89.3251797  25.4777032  17.5398781  89.2919340  26.7640499
  21.9018432  94.9301306  19.1987944  21.5968568  95.2447455  20.0498087
  22.8548874  95.0082726  19.2415277  15.0783592  91.7511196  23.2087510
  15.6527343  91.5286377  22.4760702  15.6654574  91.8199890  23.9616111
  17.3806259  88.6252445  21.9362579  16.7270672  88.3101462  21.3119194
  17.3386733  88.0028185  22.6622402  23.8457884  93.5482910  23.3731696
  23.1080641  93.0360296  23.7041939  24.0984658  93.1083292  22.5614973
  23.9469512  86.3259162  23.9673465  24.2528389  85.4656526  23.6799380
  24.6722117  86.9176782  23.7672459  21.7557163  95.7031840  31.0654929
  22.1106551  95.9303313  31.9249395  22.4029294  96.0350216  30.4432185
  15.6497026  92.8108371  27.8501270  16.2896406  92.6697130  27.1524234
  14.8174557  92.5242884  27.4739872  20.0276140  90.8208394  31.8138743
  19.3804055  91.5198343  31.7203219  20.7977155  91.2544538  32.1814991
  21.7752135  91.7883804  24.3178027  22.2720835  91.0353767  23.9979098
  21.0039116  91.8248121  23.7521237  29.6281892  97.4924170  25.9596319
  29.6171769  98.3748885  25.5890252  28.7599272  97.1395721  25.7650856
  18.3587104  93.9301187  24.0449712  17.9884891  93.3772228  24.7330618
  18.8546196  93.3259321  23.4924712  26.2454467  96.3872811  22.4266485
  26.7114919  97.2200802  22.3526788  26.6961968  95.9217792  23.1311743
  24.2171130  88.7553398  26.4657386  23.3034210  88.9857625  26.6339593
  24.6464231  88.8391842  27.3171419  13.7552437  91.3405178  30.2902818
  13.8193764  92.2020009  29.8780216  13.6919558  90.7279180  29.5575177
  16.3390813  90.6315163  32.1262408  16.8625215  90.8777459  32.8888717
  16.1203146  91.4635197  31.7065545  17.5443358  91.5728858  29.8112078
  17.2040179  90.7736671  30.2132758  16.8382365  91.8730569  29.2388911
  18.1959830  88.6578170  28.2639401  19.0185899  88.1838648  28.1418291
  18.4397894  89.4368654  28.7638087  20.9799187  92.3911578  19.4960635
  21.1962802  93.2736216  19.1949463  20.4993255  91.9997791  18.7666277
  17.5794792  92.3399839  26.1212269  17.5656360  91.4440932  25.7844567
  18.2967220  92.3470503  26.7550555  19.4320922  92.7737179  28.1665397
  19.1738700  93.6954250  28.1649727  18.9005963  92.3767614  28.8565861
  16.9831688  91.2214219  21.3899839  17.1047599  90.2930865  21.5890727
  16.6933730  91.2352905  20.4778155  19.8522878  88.9069130  24.5266559
  19.8744575  88.9708463  23.5718539  20.2690937  88.0673638  24.7207065
  30.2306502  98.6424389  22.5645782  30.6737648  97.8931714  22.1664905
  29.3533013  98.6334525  22.1819514  16.4672767  92.7346216  35.5989772
  16.5160923  93.6108339  35.2167542  17.0095281  92.1923610  35.0261415
  24.3629250  96.1110734  33.5082944  25.2639113  95.9717199  33.2166942
  24.4377225  96.2765189  34.4481122  18.6972056  93.4877589  32.3536131
  17.8275365  93.7811155  32.0818719  18.9331536  94.0718034  33.0743394
  21.4011089  89.7057206  29.8701551  21.9193033  90.4418233  29.5448040
  21.0466222  90.0121199  30.7048310  21.6523684  86.1257488  25.3902448
  21.9325437  85.4580677  26.0162874  22.4374291  86.3186584  24.8777112
  25.5232542  94.5475122  29.1374023  26.4749965  94.6473220  29.1586247
  25.3535992  93.7553391  29.6472107  23.5446921  91.6330706  29.3233424
  22.9496854  91.9135718  28.6279912  23.2596618  92.1224606  30.0950165
  28.0020620  97.7681242  28.2516322  27.9696940  96.8297243  28.4376006
  28.6121243  97.8465279  27.5182147  28.1515108  94.5592285  28.2974606
  27.6354157  93.7750742  28.1104534  29.0355057  94.2311002  28.4621125
  25.8125835  88.3033301  24.2570418  25.6150656  87.9948389  25.1413750
  26.4225541  89.0294940  24.3868348  33.8197170  98.8297249  27.3922359
  34.5500558  98.5682537  27.9530063  33.2104115  98.0925971  27.4324427
  31.9012467  96.9705111  27.9896810  31.1745630  96.8361076  27.3813302
  31.4859754  97.2781940  28.7953528  19.6408934  89.1064161  20.3842653
  18.8309662  88.7611246  20.7597899  20.3293350  88.7971705  20.9730265
  21.5699482  88.1842208  22.0066950  22.1230520  88.6037661  22.6656973
  21.8069568  87.2577956  22.0489906  24.9478289  90.2942733  21.5145614
  24.3676958  90.9527537  21.1323666  24.6814222  89.4720078  21.1033031
  23.3981855  89.6947791  23.7166934  23.8981634  89.8064325  22.9081253
  24.0417463  89.3908844  24.3567743  23.7303167  92.4542823  20.5701962
  22.8429022  92.7392474  20.3522157  24.1457156  92.2936587  19.7229239
  27.0817703  92.4789344  24.2856301  27.8578093  92.9685797  24.5580918
  26.3565837  92.9047399  24.7428171  29.5190262  93.1916964  25.3430242
  30.1134752  92.9512700  24.6323550  29.5916845  92.4724094  25.9703778
  27.5148997  93.7587091  21.6102372  27.2585931  93.3583727  22.4410580
  26.8901865  94.4730885  21.4852511  31.8261334  96.4983165  24.1173663
  31.2660892  96.5676354  24.8905225  31.2204838  96.3224149  23.3973159
  17.7475095  88.6610250  17.6590100  17.7353765  89.6052090  17.8158371
  18.6398517  88.4780395  17.3649561  21.5627215  85.2553026  21.9136037
  20.7959611  84.7011513  22.0592719  21.9737920  85.3274895  22.7750188
  13.5668976  91.5437822  36.0041218  14.4300437  91.1874627  36.2144543
  12.9934387  91.2051717  36.6916622   2.5251426  45.7989222  16.8640093
   2.7368321  46.4420982  16.1874474   2.4781174  44.9651539  16.3962023
   3.6397254  48.6761178  15.0362450   4.4614697  48.2741365  14.7545132
   3.6359657  48.5729412  15.9878566  11.7303247  45.0199926  11.3847422
  10.9766955  44.4507324  11.2291426  11.8650788  44.9862591  12.3318056
   0.8451589  50.7939695  19.2183884   0.8270065  51.6148576  18.7264153
   1.7671509  50.6693770  19.4434025   3.6470202  45.6318837  12.6893251
   2.9893877  46.3218099  12.7773380   4.4510601  46.0215269  13.0327237
   5.8336772  47.2405090  13.5060836   6.2673279  47.1480379  14.3543890
   6.5468353  47.2162590  12.8680852   6.6952322  47.2828790  16.0393722
   6.8888212  48.1874601  16.2852997   6.5952940  46.8236209  16.8732307
   1.7567430  47.4335533  21.6134602   1.6052937  47.2046085  20.6964686
   1.7472110  48.3906135  21.6265947   3.4659637  50.4654656  19.6911084
   3.4072183  49.7813876  19.0241667   3.8679155  51.2073646  19.2391710
   3.4677044  48.4294240  17.9225064   2.5803823  48.0920161  18.0451463
   4.0375595  47.6977271  18.1593829   7.9494385  43.8402457  12.6841626
   7.9384261  44.7227172  12.3135559   7.0811764  43.4874008  12.4896163
   2.3090081  43.2921577  15.6902587   1.6561531  43.5397484  15.0355040
   2.6870460  42.4785715  15.3565064   1.9511311  50.1669573  22.2674894
   2.4951215  50.7799531  21.7729849   1.3698156  50.7249151  22.7841907
   2.3003732  51.0899311  15.0269472   1.3534068  50.9704662  14.9547799
   2.6486505  50.2021809  15.1095734   2.9084287  51.7080586  12.3138697
   3.8330835  51.5023447  12.1763148   2.7399591  51.4596987  13.2228039
   5.2740105  49.6265627  21.6036216   4.4835649  49.6089766  21.0640715
   5.0373460  50.1653921  22.3585252   5.3937980  46.4758093  18.9168944
   5.4435985  46.3108101  19.8584467   5.2851904  45.6085352  18.5266825
   2.6841743  42.4589021  20.2328251   3.5851605  42.3195486  19.9412249
   2.7589717  42.6243476  21.1726428   6.8956177  48.8955035  19.1610966
   6.6040985  49.2585015  19.9974427   6.2828308  48.1822043  18.9824298
   8.0951859  46.4607915  11.6813536   8.9298751  46.8997719  11.8451096
   8.2310988  45.9846568  10.8621782   5.1443365  44.0187649  17.6291024
   5.6197487  44.2115296  16.8209875   4.2208931  44.0746835  17.3834407
   3.8445034  40.8953410  15.8619329   4.7962457  40.9951507  15.8831553
   3.6748485  40.1031678  16.3717414   6.3233112  44.1159529  14.9761629
   6.2909432  43.1775530  15.1621313   6.9333736  44.1943566  14.2427454
   6.4727601  40.9070573  15.0219912   5.9566649  40.1229029  14.8349841
   7.3567549  40.5789289  15.1866432  12.1409662  45.1775536  14.1167666
  12.8713050  44.9160824  14.6775369  11.5316607  44.4404258  14.1569734
  10.2224959  43.3183399  14.7142117   9.4958123  43.1839364  14.1058609
   9.8072246  43.6260227  15.5198835  11.7329845  59.5217966  13.5348926
  12.3708255  59.4024713  12.8312266  11.6150688  60.4698810  13.5936878
   8.5419551  59.4745394  13.4710450   8.2038063  59.3586458  12.5830985
   9.4109320  59.0736559  13.4511456   9.0239334  60.6280246  19.4296656
   9.0127975  60.2333044  18.5577159   9.1859974  59.8946318  20.0230427
   5.7446596  63.4117357  18.3775840   5.4536462  64.3162988  18.2622506
   6.3803580  63.4533885  19.0919909   6.6702802  60.7894206  14.9677199
   7.2666375  60.5650228  14.2534162   6.7277774  60.0478951  15.5702647
  11.2871114  57.2469420  10.6102134  12.0734203  56.8288843  10.2592551
  11.5509818  58.1515512  10.7783782  16.6879541  57.1844653  11.5135112
  17.4204713  56.6143870  11.7472942  15.9318896  56.7966253  11.9541618
   8.3055660  59.6071894   8.7098455   7.9413868  59.0802515   9.4211376
   9.1622776  59.2170363   8.5364940  14.2104961  50.8966227  15.9729721
  13.8788286  51.7661638  15.7490936  13.6150574  50.5802511  16.6523751
  10.7036481  63.0978773  15.3725633  10.4037204  64.0003812  15.2641441
  10.3587540  62.8310956  16.2246786  14.1033624  55.6161313  13.0523071
  13.1950502  55.5476721  12.7581832  14.0521220  56.0933258  13.8804896
   8.1774490  57.0350959  20.9957968   7.4007824  57.5944879  20.9860833
   8.8165053  57.5207742  21.5172838  15.9695271  53.8177751  14.8300945
  15.3269651  54.1110285  14.1840739  15.4650199  53.7030672  15.6354141
  13.6235434  57.5640925   5.5186804  14.5353291  57.7968311   5.3434502
  13.1145082  58.1477969   4.9561883   6.4320863  59.8436412  20.5575935
   7.1735547  60.3821456  20.2810759   5.7257848  60.4702701  20.7147487
  11.9076202  61.9865552  19.1548097  12.3159558  61.5447963  18.4102729
  11.1853464  61.4118180  19.4082289   8.2607272  56.9238159  16.5281654
   9.1068467  57.3477573  16.6716303   8.2005910  56.2671784  17.2220217
  12.2305017  62.5466743  12.9100385  11.6013879  62.7112457  12.2076453
  11.8430679  62.9608353  13.6811349  16.1094249  63.4821181  10.2644749
  15.4245287  63.8620082   9.7141783  16.1938098  64.0916508  10.9976697
  11.4106718  54.5842528  18.1862827  11.1667649  55.3384588  17.6497103
  11.6866648  54.9627875  19.0210074  13.3645180  61.1281140  16.8640093
  13.5762076  61.7712900  16.1874474  13.3174929  60.2943456  16.3962023
  10.9671409  53.7398961  13.7676665  10.1055888  54.0380214  14.0593402
  10.9933844  53.9569359  12.8357698   4.6757060  61.8312633  13.1130234
   5.2458417  62.2599901  12.4747718   5.2665172  61.5495217  13.8114419
   5.1682226  56.9976060  21.3591245   4.5380887  57.6792341  21.5926642
   5.0618314  56.8859142  20.4144383  14.4791008  64.0053095  15.0362450
  15.3008452  63.6033283  14.7545132  14.4753411  63.9021330  15.9878566
   8.2447612  63.5537139  17.1923161   8.3092044  64.0157546  18.0281332
   7.5358536  62.9234504  17.3205470  22.5697001  60.3491844  11.3847422
  21.8160710  59.7799242  11.2291426  22.7044543  60.3154508  12.3318056
   4.4462969  51.2996826  23.7216496   4.0529915  50.7463025  24.3964140
   5.2629109  51.6107404  24.1123014   7.3630930  52.7154705  21.3136753
   8.1040643  53.3161858  21.2341215   7.5948853  51.9732343  20.7554795
   2.5072268  57.9011072  19.5914982   2.3925783  56.9996330  19.8922081
   1.6516786  58.1474769  19.2399799   9.5864106  65.8428813  21.1902483
   9.1427960  65.0565191  20.8723387  10.2481319  66.0307963  20.5246374
  11.6845344  66.1231613  19.2183884  11.6663819  66.9440494  18.7264153
  12.6065264  65.9985688  19.4434025   8.1418398  63.6375742  20.0607393
   8.6746735  62.8764030  19.8306701   7.6132479  63.3449394  20.8031547
  11.3088093  48.7435808  15.5901034  10.9652362  49.6337450  15.5140145
  11.6767056  48.5537466  14.7270619   8.8585487  53.5794120   9.1558708
   8.0027083  53.1900970   8.9764347   9.2712438  53.6586081   8.2958493
  10.3884633  51.1140463  13.5550268   9.8849429  51.0770598  12.7418073
  10.6815240  52.0233206  13.6146924   6.6327519  51.1979193  12.5616449
   7.4980516  51.0022002  12.2022339   6.7005028  50.9689545  13.4885806
  16.2472650  61.4876774   6.0326643  15.4702093  61.1487933   5.5881805
  16.9264131  61.4929397   5.3581608  11.0624679  56.6071511   5.9233251
  10.7574814  56.9217660   6.7743394  12.0155121  56.6852931   5.9660584
  14.4863957  60.9610755  12.6893251  13.8287631  61.6510016  12.7773380
  15.2904356  61.3507187  13.0327237   4.2389838  53.4281401   9.9332816
   4.8133590  53.2056582   9.2006009   4.8260821  53.4970095  10.6861417
  13.2969415  59.3155128  10.7397193  13.8101297  59.9485120  11.2418902
  13.9470639  58.7156323  10.3740553   9.7750246  56.7904583  12.9855533
   8.8572808  57.0119530  12.8277221  10.1910390  56.8650894  12.1267241
  10.5585294  58.1895999   8.1158213  11.3057113  58.7017396   7.8065336
  10.8276884  57.8680052   8.9762607  14.0631212  64.2961129   8.8676335
  13.6093539  63.4552039   8.9241526  13.4325178  64.9322528   9.2051115
  13.0064131  55.2253115  10.0977003  12.2686888  54.7130501  10.4287245
  13.2590905  54.7853497   9.2860280  12.5064151  66.1337626   9.8026153
  12.7987125  66.6942683   9.0838519  13.0162772  66.4266187  10.5579313
  13.1075759  48.0029367  10.6918772  13.4134635  47.1426731  10.4044687
  13.8328363  48.5946987  10.4917766   7.3796838  58.2983160  11.1994963
   7.4345448  57.3456997  11.1237440   6.5688040  58.4542599  11.6836262
  10.9163410  57.3802044  17.7900236  11.2712798  57.6073518  18.6494702
  11.5635541  57.7120421  17.1677491  16.6461147  60.5020480   8.4949565
  16.5079045  60.6922076   7.5670754  16.2897366  61.2639863   8.9517616
   4.8103273  54.4878576  14.5746577   5.4502652  54.3467335  13.8769540
   3.9780804  54.2013089  14.1985179  16.6730526  62.5697007  13.5060836
  17.1067033  62.4772296  14.3543890  17.3862107  62.5454508  12.8680852
  10.4058421  66.1699101  15.0393937  10.4595444  66.7390038  15.8071653
   9.5373203  66.3400987  14.6747974   3.2856815  55.8716658  16.5218388
   3.9579868  55.6634020  15.8731037   2.4586601  55.6738744  16.0823621
  17.5346076  62.6120708  16.0393722  17.7281966  63.5166519  16.2852997
  17.4346694  62.1528127  16.8732307   9.1882387  52.4978599  18.5384049
   8.5410302  53.1968548  18.4448526   9.9583402  52.9314743  18.9060297
  12.5961185  62.7627451  21.6134602  12.4446691  62.5338002  20.6964686
  12.5865864  63.7198052  21.6265947   9.3646521  60.3359364  16.5980869
  10.2938581  60.4870523  16.4249836   8.9437551  60.4243384  15.7429515
   8.1634853  64.3610028  14.3679406   8.0245939  63.9928812  15.2405345
   7.3749449  64.8757667  14.1963364   9.7140068  63.7391631  11.7568244
   9.3789901  63.6992401  12.6525894   9.2144014  63.0736347  11.2838654
   3.6884312  59.1459261  17.2820825   3.5504110  58.4139500  17.8832364
   4.5989235  59.0568161  17.0005013   6.3166613  58.8579220  16.7704505
   7.0266231  58.2172412  16.7291123   6.2735921  59.1092115  17.6930686
  14.3053391  65.7946573  19.6911084  14.2465938  65.1105793  19.0241667
  14.7072910  66.5365563  19.2391710   5.0295547  55.8444438  18.5900145
   4.4932904  55.3935176  19.2421741   4.4412255  55.9790347  17.8470609
  14.3070799  63.7586157  17.9225064  13.4197577  63.4212079  18.0451463
  14.8769350  63.0269189  18.1593829   7.8371952  68.4187610  14.8886307
   7.7642124  69.2242581  15.4005612   7.3949345  68.6179575  14.0634329
  10.9358382  53.4654009  11.0423334  11.4327081  52.7123971  10.7224404
  10.1645363  53.5018326  10.4766543  18.7888139  59.1694375  12.6841626
  18.7778015  60.0519090  12.3135559  17.9205519  58.8165925  12.4896163
  10.2970636  68.3174444  17.0444466  11.0098608  68.9521908  16.9720367
   9.8060664  68.4138310  16.2284468  12.0188162  62.2225696   8.6161757
  11.0844441  62.3427159   8.4466462  12.1964831  61.3198163   8.3521767
   7.5193351  55.6071392  10.7695019   7.1491138  55.0542432  11.4575924
   8.0152443  55.0029526  10.2170019  15.4060714  58.0643016   9.1511792
  15.8721166  58.8971007   9.0772094  15.8568214  57.5987997   9.8557050
   5.3482549  66.0668887  17.8650037   6.0492009  66.7005370  18.0179431
   4.8777664  66.4083619  17.1045676  13.3777377  50.4323603  13.1902693
  12.4640456  50.6627829  13.3584900  13.8070478  50.5162047  14.0416725
  13.1483835  58.6213495  15.6902587  12.4955285  58.8689402  15.0355040
  13.5264215  57.8077633  15.3565064   9.1971408  59.3633306  22.1768624
   8.5212045  59.2627435  22.8470999  10.0199042  59.2072519  22.6404621
   7.9394191  70.6700233  16.4126240   8.4912499  70.8331855  17.1775325
   8.2800384  71.2604671  15.7406265   2.9158684  53.0175383  17.0148125
   2.9800011  53.8790214  16.6025522   2.8525804  52.4049385  16.2820483
   2.3910957  55.0898515  20.6621159   3.0182996  54.7075593  21.2758683
   1.5338876  54.8712717  21.0276852  12.7905065  65.4961491  22.2674894
  13.3344969  66.1091449  21.7729849  12.2091910  66.0541069  22.7841907
  11.0762578  68.6182209  13.3989922  10.9513718  67.8171948  12.8900868
  11.7341669  69.1128402  12.9103892   2.6970746  54.9730941  12.5767062
   1.9757332  55.5866909  12.4374536   3.4864002  55.5088706  12.4983708
  13.1397487  66.4191229  15.0269472  12.1927822  66.2996580  14.9547799
  13.4880260  65.5313727  15.1095734   5.4997060  52.3085368  18.8507714
   6.0231462  52.5547664  19.6134024   5.2809393  53.1405402  18.4310852
  10.1443920  66.2143945  11.2273825   9.9968882  65.2860652  11.4081395
  10.9697413  66.2364036  10.7430900  13.7478042  67.0372504  12.3138697
  14.6724589  66.8315365  12.1763148  13.5793345  66.7888905  13.2228039
   6.7049605  53.2499063  16.5357385   6.3646425  52.4506876  16.9378065
   5.9988611  53.5500774  15.9634218   7.3566077  50.3348375  14.9884708
   8.1792146  49.8608853  14.8663598   7.6004140  51.1138859  15.4883394
  10.1405434  54.0681783   6.2205942  10.3569049  54.9506420   5.9194770
   9.6599501  53.6767996   5.4911584   4.8804656  57.0267496  12.7976686
   4.7349236  57.3407799  13.6900968   4.4029859  57.6452396  12.2447585
   6.7401038  54.0170044  12.8457576   6.7262607  53.1211137  12.5089874
   7.4573467  54.0240708  13.4795862   8.5927169  54.4507384  14.8910703
   8.3344947  55.3724455  14.8895034   8.0612210  54.0537819  15.5811167
   6.1437934  52.8984424   8.1145146   6.2653846  51.9701070   8.3136034
   5.8539977  52.9123110   7.2023461   9.0129125  50.5839334  11.2511866
   9.0350822  50.6478668  10.2963845   9.4297184  49.7443843  11.4452372
  19.3912749  60.3194594   9.2891088  19.8343895  59.5701919   8.8910212
  18.5139259  60.3104730   8.9064820  16.4239954  64.3224641   6.2985018
  16.9491278  64.6611914   5.5734338  16.3362306  63.3871656   6.1148152
   8.0860002  68.2358715  18.4274894   8.3947129  67.9907861  19.2997594
   8.8835484  68.4405353  17.9393765   5.6279014  54.4116421  22.3235079
   5.6767169  55.2878544  21.9412848   6.1701528  53.8693814  21.7506722
  16.1133860  64.9557545  21.6036216  15.3229403  64.9381684  21.0640715
  15.8767214  65.4945838  22.3585252  16.2331735  61.8050011  18.9168944
  16.2829740  61.6400018  19.8584467  16.1245658  60.9377270  18.5266825
  13.5235497  57.7880939  20.2328251  14.4245360  57.6487404  19.9412249
  13.5983472  57.9535394  21.1726428   7.8578302  55.1647794  19.0781437
   6.9881612  55.4581360  18.8064026   8.0937783  55.7488239  19.7988701
  17.7349932  64.2246953  19.1610966  17.4434740  64.5876933  19.9974427
  17.1222063  63.5113961  18.9824298  18.9345614  61.7899832  11.6813536
  19.7692505  62.2289636  11.8451096  19.0704743  61.3138486  10.8621782
  15.9837120  59.3479567  17.6291024  16.4591241  59.5407213  16.8209875
  15.0602685  59.4038753  17.3834407  10.5617336  51.3827411  16.5946858
  11.0799280  52.1188438  16.2693346  10.2072469  51.6891404  17.4293617
  10.8129930  47.8027693  12.1147754  11.0931684  47.1350882  12.7408181
  11.5980537  47.9956789  11.6022418  14.6838789  56.2245327  15.8619329
  15.6356212  56.3243425  15.8831553  14.5142239  55.4323596  16.3717414
  12.7053168  53.3100910  16.0478730  12.1103100  53.5905923  15.3525219
  12.4202865  53.7994811  16.8195471  17.1626867  59.4451447  14.9761629
  17.1303187  58.5067448  15.1621313  17.7727490  59.5235484  14.2427454
  17.3121355  56.2362490  15.0219912  16.7960404  55.4520947  14.8349841
  18.1961304  55.9081207  15.1866432  14.9732082  49.9803506  10.9815725
  14.7756903  49.6718594  11.8659057  15.5831788  50.7065145  11.1113655
  22.9803416  60.5067454  14.1167666  23.7106805  60.2452742  14.6775369
  22.3710362  59.7696176  14.1569734  21.0618714  58.6475316  14.7142117
  20.3351877  58.5131281  14.1058609  20.6466000  58.9552145  15.5198835
   8.8848890  62.3665246  22.4789490   9.8051899  62.5443845  22.6729537
   8.8498473  61.4221291  22.3269189   1.8810962  60.2766281  15.1212271
   2.0996972  61.2083389  15.1400305   2.2936736  59.9174255  15.9067075
  10.7305729  49.8612413   8.7312256  11.2836767  50.2807866   9.3902279
  10.9675815  48.9348161   8.7735212   6.7538828  55.8499486  24.5115020
   6.6535555  56.7993843  24.4427111   6.5360370  55.5217725  23.6391090
  14.1084536  51.9712938   8.2390921  13.5283205  52.6297742   7.8568973
  13.8420468  51.1490283   7.8278338  12.5588102  51.3717996  10.4412241
  13.0587880  51.4834530   9.6326560  13.2023710  51.0679049  11.0813049
   6.6170098  59.2796625  23.3280082   6.1337180  60.0796985  23.5343971
   6.7031037  59.2904570  22.3747526   2.5443435  63.1701160  15.3648516
   3.4986689  63.1385102  15.2978447   2.3455959  62.7091784  16.1798742
   3.1342817  61.7402276  17.9319313   3.9535706  62.2346355  17.9554151
   3.4079625  60.8234244  17.9036881  12.8909414  54.1313028   7.2947269
  12.0035269  54.4162679   7.0767464  13.3063403  53.9706792   6.4474546
  16.2423950  54.1559549  11.0101608  17.0184340  54.6456002  11.2826225
  15.5172084  54.5817604  11.4673478  18.6796508  54.8687169  12.0675549
  19.2740999  54.6282905  11.3568857  18.7523092  54.1494299  12.6949085
  12.8650437  59.6467564   7.5097559  12.8085639  60.1036116   6.6705191
  13.4178780  58.8858249   7.3320402  16.6755243  55.4357296   8.3347678
  16.4192178  55.0353932   9.1655886  16.0508111  56.1501090   8.2097818
  20.9867581  58.1753369  10.8418970  20.4267139  58.2446559  11.6150532
  20.3811085  57.9994354  10.1218466  10.9131124  63.1421257  24.1303651
  11.7822284  63.3161910  23.7690286  10.4337875  63.9615674  24.0079380
   2.7275223  53.2208027  22.7286525   3.5906684  52.8644832  22.9389849
   2.1540633  52.8821922  23.4161929  22.5723600  74.8509883  13.5348926
  23.2102010  74.7316631  12.8312266  22.4544443  75.7990727  13.5936878
  19.3813306  74.8037311  13.4710450  19.0431817  74.6878376  12.5830985
  20.2503074  74.4028477  13.4511456  19.8633089  75.9572163  19.4296656
  19.8521730  75.5624961  18.5577159  20.0253728  75.2238236  20.0230427
  16.5840350  78.7409275  18.3775840  16.2930216  79.6454906  18.2622506
  17.2197334  78.7825803  19.0919909  17.5096557  76.1186124  14.9677199
  18.1060129  75.8942146  14.2534162  17.5671528  75.3770869  15.5702647
  22.1264868  72.5761337  10.6102134  22.9127957  72.1580760  10.2592551
  22.3903572  73.4807429  10.7783782  27.5273295  72.5136570  11.5135112
  28.2598467  71.9435787  11.7472942  26.7712651  72.1258171  11.9541618
  19.1449415  74.9363812   8.7098455  18.7807622  74.4094433   9.4211376
  20.0016531  74.5462281   8.5364940  25.0498716  66.2258145  15.9729721
  24.7182040  67.0953555  15.7490936  24.4544329  65.9094429  16.6523751
  21.5430235  78.4270691  15.3725633  21.2430958  79.3295729  15.2641441
  21.1981295  78.1602874  16.2246786  24.9427379  70.9453231  13.0523071
  24.0344256  70.8768639  12.7581832  24.8914975  71.4225176  13.8804896
  19.0168245  72.3642876  20.9957968  18.2401579  72.9236796  20.9860833
  19.6558808  72.8499659  21.5172838  26.8089025  69.1469669  14.8300945
  26.1663406  69.4402202  14.1840739  26.3043954  69.0322589  15.6354141
  24.4629189  72.8932842   5.5186804  25.3747045  73.1260229   5.3434502
  23.9538836  73.4769886   4.9561883  17.2714617  75.1728330  20.5575935
  18.0129301  75.7113374  20.2810759  16.5651602  75.7994618  20.7147487
  22.7469957  77.3157470  19.1548097  23.1553313  76.8739881  18.4102729
  22.0247218  76.7410098  19.4082289  19.1001027  72.2530077  16.5281654
  19.9462222  72.6769490  16.6716303  19.0399664  71.5963701  17.2220217
  23.0698771  77.8758661  12.9100385  22.4407634  78.0404375  12.2076453
  22.6824433  78.2900270  13.6811349  26.9488003  78.8113099  10.2644749
  26.2639041  79.1912000   9.7141783  27.0331853  79.4208425  10.9976697
  22.2500472  69.9134445  18.1862827  22.0061404  70.6676506  17.6497103
  22.5260403  70.2919793  19.0210074  24.2038935  76.4573058  16.8640093
  24.4155830  77.1004818  16.1874474  24.1568683  75.6235374  16.3962023
  21.8065164  69.0690878  13.7676665  20.9449643  69.3672132  14.0593402
  21.8327598  69.2861277  12.8357698  15.5150814  77.1604550  13.1130234
  16.0852171  77.5891819  12.4747718  16.1058926  76.8787135  13.8114419
  16.0075981  72.3267978  21.3591245  15.3774641  73.0084259  21.5926642
  15.9012069  72.2151059  20.4144383  25.3184763  79.3345013  15.0362450
  26.1402206  78.9325200  14.7545132  25.3147166  79.2313247  15.9878566
  19.0841366  78.8829056  17.1923161  19.1485799  79.3449464  18.0281332
  18.3752290  78.2526421  17.3205470   9.5858656  72.2470264  14.7172160
   9.8366695  73.1317274  14.9829736  10.1218205  72.0674866  13.9447252
  33.4090756  75.6783762  11.3847422  32.6554464  75.1091160  11.2291426
  33.5438297  75.6446426  12.3318056  15.2856723  66.6288744  23.7216496
  14.8923669  66.0754942  24.3964140  16.1022864  66.9399322  24.1123014
  18.2024684  68.0446623  21.3136753  18.9434398  68.6453776  21.2341215
  18.4342607  67.3024261  20.7554795  13.3466022  73.2302990  19.5914982
  13.2319538  72.3288247  19.8922081  12.4910540  73.4766687  19.2399799
  20.4257860  81.1720730  21.1902483  19.9821714  80.3857109  20.8723387
  21.0875074  81.3599881  20.5246374  22.5239098  81.4523530  19.2183884
  22.5057574  82.2732411  18.7264153  23.4459018  81.3277605  19.4434025
  18.9812152  78.9667660  20.0607393  19.5140489  78.2055948  19.8306701
  18.4526234  78.6741312  20.8031547  22.1481847  64.0727726  15.5901034
  21.8046117  64.9629367  15.5140145  22.5160810  63.8829383  14.7270619
  19.6979241  68.9086038   9.1558708  18.8420838  68.5192888   8.9764347
  20.1106193  68.9877998   8.2958493  21.2278388  66.4432381  13.5550268
  20.7243183  66.4062516  12.7418073  21.5208995  67.3525124  13.6146924
  17.4721274  66.5271111  12.5616449  18.3374270  66.3313919  12.2022339
  17.5398783  66.2981462  13.4885806  27.0866404  76.8168691   6.0326643
  26.3095847  76.4779851   5.5881805  27.7657885  76.8221315   5.3581608
  21.9018433  71.9363429   5.9233251  21.5968569  72.2509578   6.7743394
  22.8548875  72.0144849   5.9660584  25.3257711  76.2902673  12.6893251
  24.6681386  76.9801934  12.7773380  26.1298110  76.6799105  13.0327237
  15.0783593  68.7573319   9.9332816  15.6527345  68.5348500   9.2006009
  15.6654575  68.8262013  10.6861417  24.1363170  74.6447045  10.7397193
  24.6495052  75.2777037  11.2418902  24.7864394  74.0448241  10.3740553
  17.3806260  65.6314567   8.6607886  16.7270673  65.3163585   8.0364500
  17.3386735  65.0090308   9.3867709  20.6144001  72.1196501  12.9855533
  19.6966562  72.3411448  12.8277221  21.0304144  72.1942811  12.1267241
  21.3979049  73.5187917   8.1158213  22.1450868  74.0309314   7.8065336
  21.6670638  73.1971969   8.9762607  24.9024966  79.6253047   8.8676335
  24.4487293  78.7843957   8.9241526  24.2718933  80.2614445   9.2051115
  23.8457886  70.5545033  10.0977003  23.1080643  70.0422419  10.4287245
  24.0984659  70.1145414   9.2860280  23.3457905  81.4629544   9.8026153
  23.6380880  82.0234601   9.0838519  23.8556526  81.7558105  10.5579313
  23.9469513  63.3321285  10.6918772  24.2528390  62.4718648  10.4044687
  24.6722118  63.9238905  10.4917766  18.2190593  73.6275078  11.1994963
  18.2739203  72.6748914  11.1237440  17.4081795  73.7834517  11.6836262
  21.7557164  72.7093962  17.7900236  22.1106552  72.9365435  18.6494702
  22.4029296  73.0412339  17.1677491  27.4854901  75.8312398   8.4949565
  27.3472800  76.0213994   7.5670754  27.1291120  76.5931781   8.9517616
  15.6497027  69.8170493  14.5746577  16.2896407  69.6759252  13.8769540
  14.8174558  69.5305007  14.1985179  27.5124281  77.8988925  13.5060836
  27.9460788  77.8064214  14.3543890  28.2255862  77.8746426  12.8680852
  21.2452176  81.4991019  15.0393937  21.2989198  82.0681955  15.8071653
  20.3766957  81.6692904  14.6747974  14.1250569  71.2008575  16.5218388
  14.7973623  70.9925938  15.8731037  13.2980356  71.0030661  16.0823621
  28.3739831  77.9412626  16.0393722  28.5675721  78.8458436  16.2852997
  28.2740449  77.4820045  16.8732307  20.0276141  67.8270516  18.5384049
  19.3804056  68.5260466  18.4448526  20.7977157  68.2606660  18.9060297
  23.4354939  78.0919368  21.6134602  23.2840446  77.8629920  20.6964686
  23.4259619  79.0489970  21.6265947  20.2040276  75.6651281  16.5980869
  21.1332336  75.8162441  16.4249836  19.7831306  75.7535302  15.7429515
  19.0028607  79.6901946  14.3679406  18.8639693  79.3220730  15.2405345
  18.2143204  80.2049585  14.1963364  20.5533823  79.0683548  11.7568244
  20.2183655  79.0284318  12.6525894  20.0537768  78.4028264  11.2838654
  14.5278067  74.4751178  17.2820825  14.3897864  73.7431417  17.8832364
  15.4382990  74.3860078  17.0005013  17.1560367  74.1871138  16.7704505
  17.8659986  73.5464330  16.7291123  17.1129675  74.4384033  17.6930686
  25.1447146  81.1238491  19.6911084  25.0859692  80.4397711  19.0241667
  25.5466664  81.8657481  19.2391710  15.8689301  71.1736356  18.5900145
  15.3326658  70.7227094  19.2421741  15.2806010  71.3082264  17.8470609
  25.1464553  79.0878075  17.9225064  24.2591332  78.7503997  18.0451463
  25.7163104  78.3561106  18.1593829  11.6028422  70.3092363  15.6753139
  11.5186611  69.7018033  14.9403549  10.7811129  70.8001382  15.6762635
  18.6765707  83.7479527  14.8886307  18.6035878  84.5534499  15.4005612
  18.2343100  83.9471493  14.0634329  21.7752136  68.7945927  11.0423334
  22.2720836  68.0415889  10.7224404  21.0039118  68.8310243  10.4766543
  29.6281894  74.4986292  12.6841626  29.6171770  75.3811008  12.3135559
  28.7599273  74.1457843  12.4896163  21.1364390  83.6466361  17.0444466
  21.8492362  84.2813826  16.9720367  20.6454419  83.7430227  16.2284468
  22.8581917  77.5517614   8.6161757  21.9238196  77.6719076   8.4466462
  23.0358585  76.6490081   8.3521767  18.3587105  70.9363310  10.7695019
  17.9884893  70.3834350  11.4575924  18.8546197  70.3321443  10.2170019
  26.2454468  73.3934933   9.1511792  26.7114920  74.2262925   9.0772094
  26.6961969  72.9279915   9.8557050  16.1876304  81.3960805  17.8650037
  16.8885763  82.0297288  18.0179431  15.7171419  81.7375536  17.1045676
  24.2171131  65.7615520  13.1902693  23.3034211  65.9919747  13.3584900
  24.6464233  65.8453964  14.0416725  23.9877590  73.9505412  15.6902587
  23.3349040  74.1981320  15.0355040  24.3657969  73.1369550  15.3565064
  20.0365163  74.6925223  22.1768624  19.3605800  74.5919353  22.8470999
  20.8592796  74.5364437  22.6404621  18.7787945  85.9992151  16.4126240
  19.3306253  86.1623772  17.1775325  19.1194139  86.5896589  15.7406265
  13.7552439  68.3467301  17.0148125  13.8193765  69.2082131  16.6025522
  13.6919559  67.7341302  16.2820483  13.2304711  70.4190433  20.6621159
  13.8576750  70.0367510  21.2758683  12.3732630  70.2004635  21.0276852
  23.6298820  80.8253408  22.2674894  24.1738724  81.4383367  21.7729849
  23.0485665  81.3832987  22.7841907  21.9156333  83.9474126  13.3989922
  21.7907472  83.1463866  12.8900868  22.5735424  84.4420320  12.9103892
  13.5364501  70.3022859  12.5767062  12.8151087  70.9158826  12.4374536
  14.3257757  70.8380624  12.4983708  23.9791241  81.7483146  15.0269472
  23.0321577  81.6288498  14.9547799  24.3274014  80.8605644  15.1095734
  16.3390814  67.6377285  18.8507714  16.8625216  67.8839582  19.6134024
  16.1203148  68.4697320  18.4310852  20.9837674  81.5435863  11.2273825
  20.8362637  80.6152570  11.4081395  21.8091168  81.5655953  10.7430900
  24.5871796  82.3664421  12.3138697  25.5118344  82.1607283  12.1763148
  24.4187100  82.1180822  13.2228039  17.5443360  68.5790980  16.5357385
  17.2040180  67.7798793  16.9378065  16.8382366  68.8792691  15.9634218
  18.1959831  65.6640293  14.9884708  19.0185901  65.1900771  14.8663598
  18.4397895  66.4430777  15.4883394  20.9799189  69.3973700   6.2205942
  21.1962803  70.2798338   5.9194770  20.4993256  69.0059914   5.4911584
  15.7198410  72.3559413  12.7976686  15.5742991  72.6699717  13.6900968
  15.2423614  72.9744314  12.2447585  17.5794793  69.3461961  12.8457576
  17.5656362  68.4503055  12.5089874  18.2967221  69.3532625  13.4795862
  19.4320924  69.7799302  14.8910703  19.1738702  70.7016372  14.8895034
  18.9005964  69.3829736  15.5811167  16.9831689  68.2276342   8.1145146
  17.1047600  67.2992988   8.3136034  16.6933731  68.2415028   7.2023461
  19.8522879  65.9131252  11.2511866  19.8744576  65.9770585  10.2963845
  20.2690938  65.0735761  11.4452372  30.2306504  75.6486512   9.2891088
  30.6737650  74.8993837   8.8910212  29.3533014  75.6396648   8.9064820
  10.9810094  74.0234654  18.6294504  10.2391830  74.1717289  19.2159135
  10.6602838  74.2842920  17.7661254  27.2633708  79.6516559   6.2985018
  27.7885032  79.9903831   5.5734338  27.1756061  78.7163574   6.1148152
  18.9253757  83.5650632  18.4274894  19.2340883  83.3199779  19.2997594
  19.7229239  83.7697271  17.9393765  16.4672768  69.7408339  22.3235079
  16.5160924  70.6170462  21.9412848  17.0095283  69.1985732  21.7506722
  26.9527614  80.2849462  21.6036216  26.1623158  80.2673601  21.0640715
  26.7160969  80.8237756  22.3585252  27.0725489  77.1341929  18.9168944
  27.1223494  76.9691936  19.8584467  26.9639413  76.2669188  18.5266825
  24.3629252  73.1172857  20.2328251  25.2639114  72.9779322  19.9412249
  24.4377226  73.2827312  21.1726428  18.6972057  70.4939711  19.0781437
  17.8275366  70.7873278  18.8064026  18.9331537  71.0780156  19.7988701
  28.5743686  79.5538870  19.1610966  28.2828494  79.9168851  19.9974427
  27.9615817  78.8405879  18.9824298  29.7739368  77.1191750  11.6813536
  30.6086260  77.5581554  11.8451096  29.9098497  76.6430403  10.8621782
  26.8230874  74.6771485  17.6291024  27.2984996  74.8699131  16.8209875
  25.8996440  74.7330671  17.3834407  21.4011091  66.7119328  16.5946858
  21.9193035  67.4480355  16.2693346  21.0466224  67.0183322  17.4293617
  21.6523685  63.1319611  12.1147754  21.9325439  62.4642800  12.7408181
  22.4374292  63.3248707  11.6022418  25.5232543  71.5537245  15.8619329
  26.4749966  71.6535343  15.8831553  25.3535994  70.7615513  16.3717414
  23.5446923  68.6392828  16.0478730  22.9496855  68.9197841  15.3525219
  23.2596619  69.1286729  16.8195471  28.0020621  74.7743365  14.9761629
  27.9696941  73.8359365  15.1621313  28.6121245  74.8527401  14.2427454
  28.1515110  71.5654408  15.0219912  27.6354158  70.7812865  14.8349841
  29.0355058  71.2373125  15.1866432  25.8125836  65.3095424  10.9815725
  25.6150658  65.0010512  11.8659057  26.4225542  66.0357063  11.1113655
  33.8197171  75.8359371  14.1167666  34.5500559  75.5744660  14.6775369
  33.2104116  75.0988093  14.1569734  31.9012468  73.9767234  14.7142117
  31.1745632  73.8423199  14.1058609  31.4859755  74.2844063  15.5198835
  19.7242644  77.6957164  22.4789490  20.6445654  77.8735763  22.6729537
  19.6892227  76.7513209  22.3269189  12.7204717  75.6058198  15.1212271
  12.9390727  76.5375306  15.1400305  13.1330491  75.2466173  15.9067075
  19.6408935  66.1126284   7.1087960  18.8309663  65.7673369   7.4843206
  20.3293352  65.8033827   7.6975571  21.5699483  65.1904331   8.7312256
  22.1230522  65.6099784   9.3902279  21.8069569  64.2640079   8.7735212
  17.5932582  71.1791404  24.5115020  17.4929309  72.1285761  24.4427111
  17.3754124  70.8509643  23.6391090  24.9478290  67.3004856   8.2390921
  24.3676959  67.9589660   7.8568973  24.6814223  66.4782200   7.8278338
  23.3981857  66.7009913  10.4412241  23.8981635  66.8126448   9.6326560
  24.0417464  66.3970966  11.0813049  17.4563852  74.6088543  23.3280082
  16.9730934  75.4088903  23.5343971  17.5424791  74.6196488  22.3747526
  13.3837190  78.4993078  15.3648516  14.3380443  78.4677020  15.2978447
  13.1849713  78.0383701  16.1798742  13.9736572  77.0694194  17.9319313
  14.7929461  77.5638272  17.9554151  14.2473380  76.1526162  17.9036881
  23.7303168  69.4604946   7.2947269  22.8429023  69.7454597   7.0767464
  24.1457157  69.2998709   6.4474546  27.0817704  69.4851467  11.0101608
  27.8578094  69.9747919  11.2826225  26.3565838  69.9109521  11.4673478
  29.5190263  70.1979086  12.0675549  30.1134754  69.9574822  11.3568857
  29.5916847  69.4786217  12.6949085  23.7044192  74.9759482   7.5097559
  23.6479393  75.4328033   6.6705191  24.2572534  74.2150167   7.3320402
  27.5148998  70.7649214   8.3347678  27.2585932  70.3645850   9.1655886
  26.8901866  71.4793008   8.2097818  31.8261336  73.5045287  10.8418970
  31.2660894  73.5738476  11.6150532  31.2204839  73.3286272  10.1218466
   9.2271486  71.4032328  18.6311510   9.8730350  70.8931282  19.1198736
   9.0188637  72.1401009  19.2054936  21.7524878  78.4713175  24.1303651
  22.6216038  78.6453827  23.7690286  21.2731630  79.2907592  24.0079380
  17.7475097  65.6672372   4.3835407  17.7353767  66.6114212   4.5403677
  18.6398519  65.4842518   4.0894868  21.5627216  62.2615149   8.6381343
  20.7959612  61.7073636   8.7838026  21.9737921  62.3337018   9.4995495
  13.5668977  68.5499945  22.7286525  14.4300439  68.1936750  22.9389849
  12.9934388  68.2113840  23.4161929  33.4117354  90.1801801  13.5348926
  34.0495764  90.0608548  12.8312266  33.2938197  91.1282645  13.5936878
  30.2207060  90.1329229  13.4710450  29.8825572  90.0170294  12.5830985
  31.0896829  89.7320394  13.4511456  30.7026843  91.2864081  19.4296656
  30.6915484  90.8916879  18.5577159  30.8647483  90.5530153  20.0230427
  27.4234105  94.0701193  18.3775840  27.1323971  94.9746824  18.2622506
  28.0591089  94.1117720  19.0919909  28.3490311  91.4478041  14.9677199
  28.9453884  91.2234064  14.2534162  28.4065283  90.7062787  15.5702647
  32.9658623  87.9053255  10.6102134  33.7521712  87.4872678  10.2592551
  33.2297327  88.8099347  10.7783782  38.3667050  87.8428488  11.5135112
  39.0992222  87.2727705  11.7472942  37.6106405  87.4550089  11.9541618
  29.9843169  90.2655730   8.7098455  29.6201377  89.7386351   9.4211376
  30.8410285  89.8754199   8.5364940  35.8892470  81.5550062  15.9729721
  35.5575795  82.4245473  15.7490936  35.2938083  81.2386346  16.6523751
  32.3823990  93.7562608  15.3725633  32.0824713  94.6587647  15.2641441
  32.0375049  93.4894791  16.2246786  35.7821133  86.2745148  13.0523071
  34.8738011  86.2060557  12.7581832  35.7308729  86.7517093  13.8804896
  29.8561999  87.6934794  20.9957968  29.0795333  88.2528714  20.9860833
  30.4952562  88.1791577  21.5172838  37.6482780  84.4761587  14.8300945
  37.0057160  84.7694120  14.1840739  37.1437708  84.3614507  15.6354141
  35.3022943  88.2224760   5.5186804  36.2140800  88.4552147   5.3434502
  34.7932591  88.8061804   4.9561883  28.1108372  90.5020247  20.5575935
  28.8523056  91.0405291  20.2810759  27.4045357  91.1286536  20.7147487
  33.5863711  92.6449388  19.1548097  33.9947067  92.2031798  18.4102729
  32.8640973  92.0702015  19.4082289  29.9394781  87.5821995  16.5281654
  30.7855976  88.0061408  16.6716303  29.8793419  86.9255619  17.2220217
  33.9092526  93.2050578  12.9100385  33.2801388  93.3696293  12.2076453
  33.5218188  93.6192188  13.6811349  37.7881758  94.1405016  10.2644749
  37.1032796  94.5203918   9.7141783  37.8725607  94.7500343  10.9976697
  33.0894227  85.2426363  18.1862827  32.8455158  85.9968423  17.6497103
  33.3654157  85.6211711  19.0210074  35.0432689  91.7864975  16.8640093
  35.2549585  92.4296735  16.1874474  34.9962438  90.9527292  16.3962023
  32.6458918  84.3982796  13.7676665  31.7843397  84.6964050  14.0593402
  32.6721353  84.6153195  12.8357698  26.3544569  92.4896468  13.1130234
  26.9245926  92.9183736  12.4747718  26.9452681  92.2079053  13.8114419
  26.8469735  87.6559895  21.3591245  26.2168396  88.3376176  21.5926642
  26.7405823  87.5442977  20.4144383  36.1578517  94.6636931  15.0362450
  36.9795961  94.2617118  14.7545132  36.1540920  94.5605165  15.9878566
  29.9235121  94.2120974  17.1923161  29.9879553  94.6741381  18.0281332
  29.2146045  93.5818339  17.3205470  20.4252411  87.5762182  14.7172160
  20.6760449  88.4609192  14.9829736  20.9611959  87.3966784  13.9447252
  44.2484510  91.0075679  11.3847422  43.4948219  90.4383077  11.2291426
  44.3832051  90.9738344  12.3318056  26.1250478  81.9580661  23.7216496
  25.7317424  81.4046860  24.3964140  26.9416618  82.2691240  24.1123014
  29.0418439  83.3738540  21.3136753  29.7828152  83.9745694  21.2341215
  29.2736362  82.6316178  20.7554795  24.1859777  88.5594908  19.5914982
  24.0713292  87.6580165  19.8922081  23.3304295  88.8058604  19.2399799
  31.2651615  96.5012648  21.1902483  30.8215469  95.7149027  20.8723387
  31.9268828  96.6891799  20.5246374  33.3632853  96.7815448  19.2183884
  33.3451328  97.6024329  18.7264153  34.2852773  96.6569523  19.4434025
  29.8205907  94.2959577  20.0607393  30.3534244  93.5347866  19.8306701
  29.2919988  94.0033229  20.8031547  32.9875602  79.4019643  15.5901034
  32.6439871  80.2921285  15.5140145  33.3554565  79.2121301  14.7270619
  30.5372996  84.2377955   9.1558708  29.6814592  83.8484806   8.9764347
  30.9499947  84.3169916   8.2958493  32.0672142  81.7724299  13.5550268
  31.5636938  81.7354434  12.7418073  32.3602749  82.6817041  13.6146924
  28.3115028  81.8563028  12.5616449  29.1768025  81.6605837  12.2022339
  28.3792537  81.6273380  13.4885806  32.7412188  87.2655347   5.9233251
  32.4362323  87.5801496   6.7743394  33.6942630  87.3436766   5.9660584
  36.1651466  91.6194590  12.6893251  35.5075140  92.3093852  12.7773380
  36.9691865  92.0091022  13.0327237  25.9177347  84.0865236   9.9332816
  26.4921099  83.8640418   9.2006009  26.5048330  84.1553931  10.6861417
  34.9756924  89.9738963  10.7397193  35.4888806  90.6068955  11.2418902
  35.6258148  89.3740159  10.3740553  28.2200015  80.9606485   8.6607886
  27.5664427  80.6455502   8.0364500  28.1780489  80.3382226   9.3867709
  31.4537755  87.4488419  12.9855533  30.5360317  87.6703366  12.8277221
  31.8697899  87.5234729  12.1267241  32.2372803  88.8479834   8.1158213
  32.9844622  89.3601232   7.8065336  32.5064393  88.5263887   8.9762607
  35.7418721  94.9544965   8.8676335  35.2881048  94.1135874   8.9241526
  35.1112687  95.5906363   9.2051115  34.6851640  85.8836951  10.0977003
  33.9474397  85.3714337  10.4287245  34.9378414  85.4437332   9.2860280
  34.1851660  96.7921461   9.8026153  34.4774634  97.3526518   9.0838519
  34.6950280  97.0850022  10.5579313  34.7863268  78.6613203  10.6918772
  35.0922144  77.8010566  10.4044687  35.5115872  79.2530823  10.4917766
  29.0584347  88.9566996  11.1994963  29.1132957  88.0040832  11.1237440
  28.2475549  89.1126435  11.6836262  32.5950919  88.0385880  17.7900236
  32.9500307  88.2657353  18.6494702  33.2423050  88.3704257  17.1677491
  38.3248656  91.1604316   8.4949565  38.1866554  91.3505912   7.5670754
  37.9684875  91.9223699   8.9517616  26.4890782  85.1462411  14.5746577
  27.1290161  85.0051170  13.8769540  25.6568313  84.8596924  14.1985179
  38.3518035  93.2280843  13.5060836  38.7854542  93.1356132  14.3543890
  39.0649616  93.2038343  12.8680852  32.0845930  96.8282937  15.0393937
  32.1382953  97.3973873  15.8071653  31.2160712  96.9984822  14.6747974
  24.9644324  86.5300493  16.5218388  25.6367377  86.3217855  15.8731037
  24.1374110  86.3322579  16.0823621  39.2133585  93.2704543  16.0393722
  39.4069475  94.1750354  16.2852997  39.1134203  92.8111962  16.8732307
  30.8669896  83.1562434  18.5384049  30.2197811  83.8552384  18.4448526
  31.6370911  83.5898578  18.9060297  34.2748694  93.4211286  21.6134602
  34.1234200  93.1921838  20.6964686  34.2653373  94.3781888  21.6265947
  31.0434030  90.9943199  16.5980869  31.9726090  91.1454358  16.4249836
  30.6225060  91.0827220  15.7429515  29.8422362  95.0193863  14.3679406
  29.7033448  94.6512648  15.2405345  29.0536958  95.5341503  14.1963364
  31.3927577  94.3975466  11.7568244  31.0577410  94.3576236  12.6525894
  30.8931523  93.7320182  11.2838654  25.3671821  89.8043096  17.2820825
  25.2291619  89.0723335  17.8832364  26.2776744  89.7151996  17.0005013
  27.9954122  89.5163055  16.7704505  28.7053740  88.8756248  16.7291123
  27.9523430  89.7675950  17.6930686  35.9840900  96.4530409  19.6911084
  35.9253446  95.7689629  19.0241667  36.3860419  97.1949399  19.2391710
  26.7083056  86.5028273  18.5900145  26.1720413  86.0519012  19.2421741
  26.1199764  86.6374182  17.8470609  35.9858308  94.4169993  17.9225064
  35.0985086  94.0795914  18.0451463  36.5556859  93.6853024  18.1593829
  22.4422177  85.6384281  15.6753139  22.3580366  85.0309950  14.9403549
  21.6204883  86.1293299  15.6762635  32.6145891  84.1237844  11.0423334
  33.1114590  83.3707807  10.7224404  31.8432872  84.1602161  10.4766543
  40.4675648  89.8278210  12.6841626  40.4565524  90.7102925  12.3135559
  39.5993028  89.4749761  12.4896163  31.9758145  98.9758279  17.0444466
  32.6886117  99.6105744  16.9720367  31.4848173  99.0722145  16.2284468
  33.6975671  92.8809532   8.6161757  32.7631950  93.0010994   8.4466462
  33.8752340  91.9781998   8.3521767  29.1980859  86.2655227  10.7695019
  28.8278647  85.7126268  11.4575924  29.6939952  85.6613361  10.2170019
  37.0848223  88.7226851   9.1511792  37.5508675  89.5554843   9.0772094
  37.5355723  88.2571833   9.8557050  27.0270058  96.7252722  17.8650037
  27.7279518  97.3589205  18.0179431  26.5565173  97.0667454  17.1045676
  35.0564886  81.0907438  13.1902693  34.1427965  81.3211665  13.3584900
  35.4857987  81.1745882  14.0416725  34.8271344  89.2797330  15.6902587
  34.1742794  89.5273237  15.0355040  35.2051724  88.4661468  15.3565064
  30.8758917  90.0217141  22.1768624  30.1999554  89.9211270  22.8470999
  31.6986551  89.8656355  22.6404621  24.5946193  83.6759218  17.0148125
  24.6587520  84.5374049  16.6025522  24.5313313  83.0633220  16.2820483
  24.0698466  85.7482351  20.6621159  24.6970504  85.3659428  21.2758683
  23.2126385  85.5296553  21.0276852  34.4692574  96.1545326  22.2674894
  35.0132478  96.7675284  21.7729849  33.8879419  96.7124904  22.7841907
  32.7550087  99.2766044  13.3989922  32.6301227  98.4755784  12.8900868
  33.4129178  99.7712237  12.9103892  24.3758255  85.6314776  12.5767062
  23.6544841  86.2450744  12.4374536  25.1651511  86.1672541  12.4983708
  34.8184996  97.0775064  15.0269472  33.8715331  96.9580415  14.9547799
  35.1667769  96.1897562  15.1095734  27.1784569  82.9669203  18.8507714
  27.7018971  83.2131500  19.6134024  26.9596902  83.7989238  18.4310852
  31.8231429  96.8727780  11.2273825  31.6756391  95.9444488  11.4081395
  32.6484922  96.8947871  10.7430900  35.4265551  97.6956339  12.3138697
  36.3512098  97.4899200  12.1763148  35.2580854  97.4472740  13.2228039
  28.3837114  83.9082898  16.5357385  28.0433934  83.1090711  16.9378065
  27.6776120  84.2084609  15.9634218  29.0353586  80.9932210  14.9884708
  29.8579655  80.5192689  14.8663598  29.2791649  81.7722694  15.4883394
  31.8192943  84.7265618   6.2205942  32.0356558  85.6090256   5.9194770
  31.3387010  84.3351831   5.4911584  26.5592165  87.6851331  12.7976686
  26.4136745  87.9991634  13.6900968  26.0817368  88.3036231  12.2447585
  28.4188547  84.6753879  12.8457576  28.4050116  83.7794972  12.5089874
  29.1360976  84.6824543  13.4795862  30.2714678  85.1091219  14.8910703
  30.0132456  86.0308290  14.8895034  29.7399719  84.7121654  15.5811167
  27.8225443  83.5568259   8.1145146  27.9441355  82.6284906   8.3136034
  27.5327486  83.5706945   7.2023461  30.6916634  81.2423170  11.2511866
  30.7138331  81.3062503  10.2963845  31.1084693  80.4027678  11.4452372
  41.0700258  90.9778429   9.2891088  41.5131404  90.2285755   8.8910212
  40.1926768  90.9688566   8.9064820  21.8203849  89.3526572  18.6294504
  21.0785585  89.5009207  19.2159135  21.4996593  89.6134837  17.7661254
  27.3066523  85.0700257  22.3235079  27.3554678  85.9462380  21.9412848
  27.8489037  84.5277650  21.7506722  37.7921369  95.6141380  21.6036216
  37.0016912  95.5965519  21.0640715  37.5554723  96.1529674  22.3585252
  37.9119244  92.4633846  18.9168944  37.9617249  92.2983854  19.8584467
  37.8033167  91.5961105  18.5266825  35.2023006  88.4464774  20.2328251
  36.1032869  88.3071239  19.9412249  35.2770981  88.6119229  21.1726428
  29.5365811  85.8231629  19.0781437  28.6669121  86.1165195  18.8064026
  29.7725292  86.4072074  19.7988701  39.4137440  94.8830788  19.1610966
  39.1222249  95.2460768  19.9974427  38.8009572  94.1697796  18.9824298
  40.6133123  92.4483668  11.6813536  41.4480014  92.8873472  11.8451096
  40.7492252  91.9722321  10.8621782  37.6624629  90.0063403  17.6291024
  38.1378750  90.1991049  16.8209875  36.7390194  90.0622588  17.3834407
  32.2404845  82.0411246  16.5946858  32.7586789  82.7772273  16.2693346
  31.8859978  82.3475239  17.4293617  32.4917439  78.4611529  12.1147754
  32.7719193  77.7934718  12.7408181  33.2768046  78.6540624  11.6022418
  36.3626298  86.8829163  15.8619329  37.3143721  86.9827260  15.8831553
  36.1929748  86.0907431  16.3717414  34.3840677  83.9684746  16.0478730
  33.7890609  84.2489759  15.3525219  34.0990374  84.4578647  16.8195471
  38.8414376  90.1035282  14.9761629  38.8090696  89.1651283  15.1621313
  39.4514999  90.1819319  14.2427454  38.9908864  86.8946326  15.0219912
  38.4747913  86.1104782  14.8349841  39.8748813  86.5665042  15.1866432
  36.6519591  80.6387341  10.9815725  36.4544412  80.3302429  11.8659057
  37.2619297  81.3648980  11.1113655  44.6590925  91.1651289  14.1167666
  45.3894314  90.9036577  14.6775369  44.0497871  90.4280011  14.1569734
  42.7406222  89.3059152  14.7142117  42.0139386  89.1715117  14.1058609
  42.3253509  89.6135980  15.5198835  30.5636399  93.0249081  22.4789490
  31.4839408  93.2027680  22.6729537  30.5285982  92.0805127  22.3269189
  23.5598471  90.9350116  15.1212271  23.7784481  91.8667224  15.1400305
  23.9724245  90.5758090  15.9067075  30.4802689  81.4418201   7.1087960
  29.6703418  81.0965286   7.4843206  31.1687106  81.1325745   7.6975571
  32.4093238  80.5196248   8.7312256  32.9624276  80.9391702   9.3902279
  32.6463324  79.5931996   8.7735212  28.4326337  86.5083322  24.5115020
  28.3323064  87.4577679  24.4427111  28.2147879  86.1801561  23.6391090
  35.7872045  82.6296773   8.2390921  35.2070714  83.2881577   7.8568973
  35.5207977  81.8074118   7.8278338  34.2375611  82.0301831  10.4412241
  34.7375389  82.1418366   9.6326560  34.8811219  81.7262884  11.0813049
  28.2957607  89.9380461  23.3280082  27.8124689  90.7380821  23.5343971
  28.3818546  89.9488406  22.3747526  24.2230944  93.8284995  15.3648516
  25.1774198  93.7968938  15.2978447  24.0243468  93.3675619  16.1798742
  24.8130326  92.3986111  17.9319313  25.6323215  92.8930190  17.9554151
  25.0867134  91.4818080  17.9036881  34.5696923  84.7896864   7.2947269
  33.6822778  85.0746514   7.0767464  34.9850912  84.6290627   6.4474546
  37.9211459  84.8143385  11.0101608  38.6971849  85.3039837  11.2826225
  37.1959593  85.2401439  11.4673478  40.3584017  85.5271004  12.0675549
  40.9528508  85.2866740  11.3568857  40.4310601  84.8078135  12.6949085
  34.5437946  90.3051400   7.5097559  34.4873148  90.7619951   6.6705191
  35.0966289  89.5442084   7.3320402  38.3542752  86.0941132   8.3347678
  38.0979687  85.6937767   9.1655886  37.7295620  86.8084925   8.2097818
  42.6655090  88.8337205  10.8418970  42.1054648  88.9030394  11.6150532
  42.0598594  88.6578189  10.1218466  20.0665241  86.7324245  18.6311510
  20.7124104  86.2223199  19.1198736  19.8582392  87.4692927  19.2054936
  32.5918633  93.8005093  24.1303651  33.4609793  93.9745745  23.7690286
  32.1125384  94.6199510  24.0079380  28.5868851  80.9964290   4.3835407
  28.5747521  81.9406130   4.5403677  29.4792273  80.8134435   4.0894868
  32.4020971  77.5907067   8.6381343  31.6353366  77.0365553   8.7838026
  32.8131676  77.6628935   9.4995495  24.4062732  83.8791862  22.7286525
  25.2694193  83.5228667  22.9389849  23.8328142  83.5405757  23.4161929
  46.7286225  96.8841980  15.9729721  46.3969549  97.7537391  15.7490936
  46.1331838  96.5678264  16.6523751  43.9287981 100.5718281  18.1862827
  43.6848913 101.3260341  17.6497103  44.2047912 100.9503628  19.0210074
  36.9644232  97.2872579  23.7216496  36.5711178  96.7338778  24.3964140
  37.7810373  97.5983157  24.1123014  39.8812193  98.7030458  21.3136753
  40.6221907  99.3037611  21.2341215  40.1130116  97.9608096  20.7554795
  43.8269356  94.7311561  15.5901034  43.4833626  95.6213203  15.5140145
  44.1948319  94.5413219  14.7270619  42.9065897  97.1016216  13.5550268
  42.4030692  97.0646351  12.7418073  43.1996504  98.0108959  13.6146924
  39.1508783  97.1854946  12.5616449  40.0161779  96.9897755  12.2022339
  39.2186292  96.9565298  13.4885806  43.4344673 103.3677798  17.7900236
  43.7894061 103.5949271  18.6494702  44.0816805 103.6996174  17.1677491
  37.3284536 100.4754329  14.5746577  37.9683916 100.3343088  13.8769540
  36.4962067 100.1888842  14.1985179  41.7063650  98.4854352  18.5384049
  41.0591565  99.1844301  18.4448526  42.4764666  98.9190496  18.9060297
  45.8958640  96.4199356  13.1902693  44.9821720  96.6503582  13.3584900
  46.3251741  96.5037800  14.0416725  35.4339948  99.0051136  17.0148125
  35.4981274  99.8665967  16.6025522  35.3707068  98.3925138  16.2820483
  38.0178323  98.2961121  18.8507714  38.5412725  98.5423417  19.6134024
  37.7990657  99.1281155  18.4310852  39.2230868  99.2374816  16.5357385
  38.8827689  98.4382629  16.9378065  38.5169875  99.5376527  15.9634218
  39.8747340  96.3224128  14.9884708  40.6973410  95.8484606  14.8663598
  40.1185404  97.1014612  15.4883394  39.2582302 100.0045797  12.8457576
  39.2443871  99.1086890  12.5089874  39.9754730 100.0116461  13.4795862
  41.1108433 100.4383137  14.8910703  40.8526210 101.3600208  14.8895034
  40.5793473 100.0413572  15.5811167  41.5310388  96.5715088  11.2511866
  41.5532085  96.6354421  10.2963845  41.9478447  95.7319596  11.4452372
  38.1460277 100.3992174  22.3235079  38.1948433 101.2754297  21.9412848
  38.6882792  99.8569567  21.7506722  46.0416761 103.7756692  20.2328251
  46.9426623 103.6363157  19.9412249  46.1164735 103.9411147  21.1726428
  40.3759566 101.1523547  19.0781437  39.5062875 101.4457113  18.8064026
  40.6119046 101.7363992  19.7988701  43.0798600  97.3703164  16.5946858
  43.5980544  98.1064191  16.2693346  42.7253732  97.6767157  17.4293617
  43.3311194  93.7903446  12.1147754  43.6112948  93.1226635  12.7408181
  44.1161801  93.9832542  11.6022418  45.2234432  99.2976664  16.0478730
  44.6284364  99.5781676  15.3525219  44.9384128  99.7870564  16.8195471
  35.2456486  99.2083780  22.7286525  36.1087948  98.8520585  22.9389849
  34.6721897  98.8697675  23.4161929  19.8633090  52.9634286   6.1541962
  19.8521731  52.5687084   5.2822466  20.0253730  52.2300358   6.7475734
  16.5840351  55.7471398   5.1021146  16.2930217  56.6517028   4.9867813
  17.2197336  55.7887925   5.8165216  21.5430236  55.4332813   2.0970940
  21.2430959  56.3357852   1.9886747  21.1981296  55.1664996   2.9492093
  19.0168246  49.3704999   7.7203275  18.2401580  49.9298919   7.7106139
  19.6558809  49.8561782   8.2418145  17.2714618  52.1790452   7.2821242
  18.0129303  52.7175496   7.0056065  16.5651604  52.8056741   7.4392793
  22.7469958  54.3219593   5.8793403  23.1553314  53.8802003   5.1348036
  22.0247219  53.7472220   6.1327596  22.2500473  46.9196568   4.9108134
  22.0061405  47.6738628   4.3742409  22.5260404  47.2981915   5.7455381
  24.2038936  53.4635180   3.5885399  24.4155831  54.1066940   2.9119780
  24.1568684  52.6297497   3.1207329  16.0075982  49.3330100   8.0836552
  15.3774643  50.0146381   8.3171949  15.9012070  49.2213182   7.1389690
  25.3184764  56.3407136   1.7607757  26.1402208  55.9387323   1.4790438
  25.3147167  56.2375370   2.7123872  19.0841367  55.8891179   3.9168467
  19.1485800  56.3511586   4.7526639  18.3752291  55.2588544   4.0450777
  33.4090757  52.6845884  -1.8907272  32.6554465  52.1153282  -2.0463267
  33.5438298  52.6508549  -0.9436637  15.2856725  43.6350866  10.4461803
  14.8923670  43.0817065  11.1209447  16.1022865  43.9461445  10.8368320
  18.2024686  45.0508745   8.0382059  18.9434399  45.6515898   7.9586522
  18.4342609  44.3086383   7.4800102  13.3466024  50.2365113   6.3160289
  13.2319539  49.3350370   6.6167388  12.4910541  50.4828809   5.9645106
  20.4257861  58.1782853   7.9147790  19.9821716  57.3919231   7.5968694
  21.0875075  58.3662003   7.2491680  22.5239100  58.4585653   5.9429191
  22.5057575  59.2794534   5.4509460  23.4459020  58.3339728   6.1679332
  18.9812154  55.9729782   6.7852699  19.5140491  55.2118071   6.5552007
  18.4526235  55.6803434   7.5276854  25.3257712  53.2964795  -0.5861442
  24.6681387  53.9864057  -0.4981314  26.1298112  53.6861227  -0.2427456
  21.7557166  49.7156085   4.5145543  22.1106553  49.9427558   5.3740008
  22.4029297  50.0474462   3.8922798  27.5124282  54.9051048   0.2306143
  27.9460789  54.8126337   1.0789197  28.2255863  54.8808548  -0.4073841
  21.2452177  58.5053142   1.7639244  21.2989199  59.0744078   2.5316960
  20.3766958  58.6755027   1.3993281  28.3739832  54.9474748   2.7639028
  28.5675722  55.8520559   3.0098303  28.2740450  54.4882167   3.5977613
  23.4354940  55.0981491   8.3379909  23.2840447  54.8692043   7.4209993
  23.4259620  56.0552092   8.3511254  20.2040277  52.6713404   3.3226175
  21.1332337  52.8224563   3.1495143  19.7831307  52.7597425   2.4674822
  19.0028609  56.6964068   1.0924713  18.8639694  56.3282853   1.9650651
  18.2143205  57.2111708   0.9208671  25.1447147  58.1300614   6.4156391
  25.0859693  57.4459834   5.7486974  25.5466665  58.8719604   5.9637017
  25.1464554  56.0940198   4.6470371  24.2591333  55.7566119   4.7696769
  25.7163105  55.3623229   4.8839136  18.6765708  60.7541650   1.6131614
  18.6035879  61.5596621   2.1250918  18.2343101  60.9533616   0.7879635
  29.6281895  51.5048415  -0.5913068  29.6171771  52.3873130  -0.9619135
  28.7599274  51.1519966  -0.7858531  21.1364391  60.6528484   3.7689772
  21.8492363  61.2875949   3.6965674  20.6454420  60.7492350   2.9529774
  16.1876305  58.4022927   4.5895343  16.8885764  59.0359410   4.7424737
  15.7171420  58.7437659   3.8290983  23.9877591  50.9567535   2.4147894
  23.3349041  51.2043442   1.7600346  24.3657971  50.1431673   2.0810371
  20.0365164  51.6987346   8.9013931  19.3605801  51.5981475   9.5716306
  20.8592798  51.5426560   9.3649928  18.7787947  63.0054273   3.1371547
  19.3306255  63.1685895   3.9020632  19.1194140  63.5958711   2.4651572
  23.6298821  57.8315531   8.9920201  24.1738725  58.4445489   8.4975156
  23.0485666  58.3895109   9.5087214  21.9156334  60.9536249   0.1235229
  21.7907473  60.1525989  -0.3853826  22.5735425  61.4482442  -0.3650801
  23.9791242  58.7545269   1.7514779  23.0321578  58.6350620   1.6793106
  24.3274015  57.8667767   1.8341040  24.5871797  59.3726544  -0.9615996
  25.5118345  59.1669405  -1.0991545  24.4187101  59.1242945  -0.0526655
  18.9253758  60.5712755   5.1520201  19.2340884  60.3261902   6.0242901
  19.7229240  60.7759393   4.6639071  16.4672770  46.7470462   9.0480385
  16.5160925  47.6232584   8.6658155  17.0095284  46.2047855   8.4752029
  26.9527615  57.2911585   8.3281522  26.1623159  57.2735724   7.7886022
  26.7160970  57.8299879   9.0830559  27.0725490  54.1404051   5.6414251
  27.1223495  53.9754059   6.5829774  26.9639414  53.2731310   5.2512132
  24.3629253  50.1234979   6.9573558  25.2639116  49.9841444   6.6657555
  24.4377227  50.2889434   7.8971735  18.6972058  47.5001834   5.8026744
  17.8275368  47.7935400   5.5309332  18.9331539  48.0842279   6.5234008
  28.5743687  56.5600993   5.8856272  28.2828496  56.9230973   6.7219733
  27.9615819  55.8468001   5.7069605  29.7739370  54.1253873  -1.5941157
  30.6086261  54.5643677  -1.4303597  29.9098498  53.6492526  -2.4132912
  26.8230876  51.6833607   4.3536330  27.2984997  51.8761254   3.5455182
  25.8996441  51.7392793   4.1079714  25.5232545  48.5599368   2.5864636
  26.4749967  48.6597465   2.6076860  25.3535995  47.7677636   3.0962720
  28.0020622  51.7805487   1.7006936  27.9696942  50.8421488   1.8866620
  28.6121246  51.8589524   0.9672761  28.1515111  48.5716531   1.7465219
  27.6354159  47.7874987   1.5595148  29.0355059  48.2435247   1.9111738
  33.8197172  52.8421494   0.8412972  34.5500561  52.5806782   1.4020676
  33.2104118  52.1050216   0.8815040  31.9012469  50.9829357   1.4387424
  31.1745633  50.8485322   0.8303915  31.4859756  51.2906185   2.2444142
  19.7242646  54.7019286   9.2034797  20.6445655  54.8797885   9.3974843
  19.6892229  53.7575332   9.0514496  17.5932584  48.1853527  11.2360327
  17.4929310  49.1347884  11.1672418  17.3754126  47.8571766  10.3636397
  17.4563854  51.6150666  10.0525388  16.9730935  52.4151026  10.2589277
  17.5424793  51.6258610   9.0992832  13.9736573  54.0756316   4.6564620
  14.7929462  54.5700395   4.6799457  14.2473381  53.1588284   4.6282187
  21.7524880  55.4775298  10.8548958  22.6216039  55.6515950  10.4935592
  21.2731631  56.2969715  10.7324687  13.5668978  45.5562067   9.4531831
  14.4300440  45.1998872   9.6635156  12.9934389  45.2175962  10.1407235
  33.4117355  67.1863924   0.2594232  34.0495765  67.0670671  -0.4442428
  33.2938198  68.1344768   0.3182184  30.2207062  67.1391352   0.1955757
  29.8825573  67.0232416  -0.6923708  31.0896830  66.7382517   0.1756763
  30.7026845  68.2926203   6.1541962  30.6915485  67.8979002   5.2822466
  30.8647484  67.5592276   6.7475734  27.4234106  71.0763315   5.1021146
  27.1323972  71.9808946   4.9867813  28.0591090  71.1179843   5.8165216
  28.3490313  68.4540164   1.6922506  28.9453885  68.2296186   0.9779469
  28.4065284  67.7124909   2.2947954  32.9658624  64.9115377  -2.6652560
  33.7521713  64.4934801  -3.0162143  33.2297328  65.8161470  -2.4970911
  38.3667051  64.8490611  -1.7619581  39.0992223  64.2789827  -1.5281752
  37.6106407  64.4612211  -1.3213076  29.9843171  67.2717852  -4.5656239
  29.6201378  66.7448473  -3.8543317  30.8410287  66.8816321  -4.7389753
  35.8892471  58.5612185   2.6975027  35.5575796  59.4307596   2.4736242
  35.2938085  58.2448469   3.3769058  32.3823991  70.7624731   2.0970940
  32.0824714  71.6649770   1.9886747  32.0375050  70.4956914   2.9492093
  35.7821135  63.2807271  -0.2231623  34.8738012  63.2122679  -0.5172862
  35.7308730  63.7579216   0.6050203  29.8562000  64.6996917   7.7203275
  29.0795335  65.2590837   7.7106139  30.4952564  65.1853700   8.2418145
  37.6482781  61.4823709   1.5546251  37.0057161  61.7756243   0.9086046
  37.1437710  61.3676630   2.3599448  35.3022945  65.2286883  -7.7567889
  36.2140801  65.4614269  -7.9320192  34.7932592  65.8123927  -8.3192811
  28.1108373  67.5082370   7.2821242  28.8523057  68.0467414   7.0056065
  27.4045358  68.1348659   7.4392793  33.5863712  69.6511510   5.8793403
  33.9947068  69.2093921   5.1348036  32.8640974  69.0764138   6.1327596
  29.9394782  64.5884117   3.2526960  30.7855978  65.0123531   3.3961609
  29.8793420  63.9317741   3.9465523  33.9092527  70.2112701  -0.3654308
  33.2801389  70.3758415  -1.0678240  33.5218189  70.6254311   0.4056656
  37.7881759  71.1467139  -3.0109944  37.1032797  71.5266040  -3.5612911
  37.8725608  71.7562466  -2.2777996  33.0894228  62.2488486   4.9108134
  32.8455160  63.0030546   4.3742409  33.3654158  62.6273833   5.7455381
  35.0432691  68.7927098   3.5885399  35.2549586  69.4358858   2.9119780
  34.9962439  67.9589414   3.1207329  32.6458920  61.4044919   0.4921971
  31.7843399  61.7026172   0.7838709  32.6721354  61.6215317  -0.4396996
  26.3544570  69.4958591  -0.1624460  26.9245927  69.9245859  -0.8006975
  26.9452682  69.2141175   0.5359726  26.8469737  64.6622018   8.0836552
  26.2168397  65.3438299   8.3171949  26.7405824  64.5505100   7.1389690
  36.1578518  71.6699053   1.7607757  36.9795962  71.2679241   1.4790438
  36.1540921  71.5667287   2.7123872  29.9235122  71.2183097   3.9168467
  29.9879554  71.6803504   4.7526639  29.2146046  70.5880462   4.0450777
  20.4252412  64.5824305   1.4417467  20.6760450  65.4671314   1.7075043
  20.9611960  64.4028906   0.6692558  44.2484512  68.0137802  -1.8907272
  43.4948220  67.4445200  -2.0463267  44.3832053  67.9800466  -0.9436637
  26.1250479  58.9642784  10.4461803  25.7317425  58.4108982  11.1209447
  26.9416620  59.2753362  10.8368320  29.0418440  60.3800663   8.0382059
  29.7828154  60.9807816   7.9586522  29.2736363  59.6378301   7.4800102
  24.1859778  65.5657030   6.3160289  24.0713293  64.6642288   6.6167388
  23.3304296  65.8120727   5.9645106  31.2651616  73.5074771   7.9147790
  30.8215470  72.7211149   7.5968694  31.9268830  73.6953921   7.2491680
  33.3632854  73.7877571   5.9429191  33.3451329  74.6086452   5.4509460
  34.2852774  73.6631646   6.1679332  29.8205908  71.3021700   6.7852699
  30.3534245  70.5409988   6.5552007  29.2919989  71.0095352   7.5276854
  32.9875603  56.4081766   2.3146341  32.6439873  57.2983408   2.2385452
  33.3554566  56.2183424   1.4515926  30.5372997  61.2440078  -4.1195986
  29.6814593  60.8546928  -4.2990347  30.9499949  61.3232039  -4.9796200
  32.0672144  58.7786421   0.2795574  31.5636939  58.7416556  -0.5336620
  32.3602750  59.6879164   0.3392231  28.3115029  58.8625151  -0.7138244
  29.1768026  58.6667960  -1.0732355  28.3792538  58.6335503   0.2131113
  32.7412189  64.2717469  -7.3521443  32.4362325  64.5863618  -6.5011300
  33.6942631  64.3498889  -7.3094110  36.1651467  68.6256713  -0.5861442
  35.5075141  69.3155974  -0.4981314  36.9691866  69.0153145  -0.2427456
  25.9177349  61.0927359  -3.3421877  26.4921100  60.8702540  -4.0748684
  26.5048331  61.1616053  -2.5893276  34.9756926  66.9801086  -2.5357501
  35.4888807  67.6131078  -2.0335791  35.6258150  66.3802281  -2.9014141
  31.4537757  64.4550541  -0.2899160  30.5360318  64.6765488  -0.4477472
  31.8697900  64.5296852  -1.1487453  32.2372804  65.8541957  -5.1596480
  32.9844623  66.3663354  -5.4689358  32.5064394  65.5326010  -4.2992086
  35.7418722  71.9607087  -4.4078358  35.2881049  71.1197997  -4.3513168
  35.1112689  72.5968485  -4.0703578  34.6851641  62.8899073  -3.1777691
  33.9474398  62.3776459  -2.8467448  34.9378415  62.4499455  -3.9894414
  34.1851661  73.7983584  -3.4728540  34.4774636  74.3588641  -4.1916174
  34.6950282  74.0912145  -2.7175381  34.7863269  55.6675325  -2.5835921
  35.0922146  54.8072689  -2.8710006  35.5115874  56.2592945  -2.7836927
  29.0584349  65.9629118  -2.0759730  29.1132958  65.0102955  -2.1517254
  28.2475551  66.1188557  -1.5918432  32.5950920  65.0448002   4.5145543
  32.9500308  65.2719476   5.3740008  33.2423051  65.3766379   3.8922798
  38.3248657  68.1666438  -4.7805128  38.1866556  68.3568034  -5.7083939
  37.9684876  68.9285821  -4.3237077  26.4890783  62.1524533   1.2991884
  27.1290163  62.0113293   0.6014847  25.6568314  61.8659047   0.9230486
  38.3518037  70.2342965   0.2306143  38.7854543  70.1418254   1.0789197
  39.0649617  70.2100466  -0.4073841  32.0845932  73.8345059   1.7639244
  32.1382954  74.4035996   2.5316960  31.2160713  74.0046944   1.3993281
  24.9644325  63.5362616   3.2463695  25.6367378  63.3279978   2.5976344
  24.1374112  63.3384702   2.8068927  39.2133586  70.2766666   2.7639028
  39.4069476  71.1812476   3.0098303  39.1134204  69.8174085   3.5977613
  30.8669897  60.1624557   5.2629356  30.2197812  60.8614506   5.1693832
  31.6370912  60.5960700   5.6305604  34.2748695  70.4273409   8.3379909
  34.1234201  70.1983960   7.4209993  34.2653374  71.3844010   8.3511254
  31.0434031  68.0005321   3.3226175  31.9726091  68.1516481   3.1495143
  30.6225061  68.0889342   2.4674822  29.8422363  72.0255986   1.0924713
  29.7033449  71.6574770   1.9650651  29.0536959  72.5403625   0.9208671
  31.3927578  71.4037589  -1.5186449  31.0577411  71.3638359  -0.6228799
  30.8931524  70.7382305  -1.9916039  25.3671822  66.8105219   4.0066132
  25.2291620  66.0785457   4.6077671  26.2776746  66.7214119   3.7250320
  27.9954123  66.5225178   3.4949812  28.7053741  65.8818370   3.4536430
  27.9523431  66.7738073   4.4175992  35.9840902  73.4592531   6.4156391
  35.9253448  72.7751751   5.7486974  36.3860420  74.2011521   5.9637017
  26.7083057  63.5090396   5.3145451  26.1720414  63.0581134   5.9667048
  26.1199765  63.6436305   4.5715916  35.9858309  71.4232115   4.6470371
  35.0985088  71.0858037   4.7696769  36.5556860  70.6915146   4.8839136
  22.4422178  62.6446404   2.3998446  22.3580367  62.0372073   1.6648856
  21.6204885  63.1355422   2.4007942  29.5159462  76.0833568   1.6131614
  29.4429634  76.8888539   2.1250918  29.0736855  76.2825533   0.7879635
  32.6145892  61.1299967  -2.2331359  33.1114592  60.3769929  -2.5530289
  31.8432874  61.1664284  -2.7988150  40.4675649  66.8340333  -0.5913068
  40.4565526  67.7165048  -0.9619135  39.5993029  66.4811883  -0.7858531
  31.9758146  75.9820402   3.7689772  32.6886118  76.6167866   3.6965674
  31.4848174  76.0784268   2.9529774  33.6975673  69.8871654  -4.6592936
  32.7631951  70.0073117  -4.8288232  33.8752341  68.9844121  -4.9232926
  29.1980861  63.2717350  -2.5059675  28.8278648  62.7188390  -1.8178769
  29.6939953  62.6675484  -3.0584675  37.0848224  65.7288974  -4.1242902
  37.5508676  66.5616965  -4.1982599  37.5355725  65.2633955  -3.4197643
  27.0270059  73.7314845   4.5895343  27.7279519  74.3651328   4.7424737
  26.5565174  74.0729577   3.8290983  35.0564887  58.0969561  -0.0852000
  34.1427967  58.3273787   0.0830207  35.4857988  58.1808005   0.7662032
  34.8271345  66.2859453   2.4147894  34.1742796  66.5335360   1.7600346
  35.2051725  65.4723591   2.0810371  30.8758918  67.0279264   8.9013931
  30.1999555  66.9273393   9.5716306  31.6986552  66.8718477   9.3649928
  29.6181701  78.3346191   3.1371547  30.1700009  78.4977813   3.9020632
  29.9587895  78.9250629   2.4651572  24.5946194  60.6821341   3.7393431
  24.6587521  61.5436172   3.3270829  24.5313315  60.0695342   3.0065790
  24.0698467  62.7544473   7.3866466  24.6970506  62.3721551   8.0003990
  23.2126386  62.5358675   7.7522158  34.4692576  73.1607449   8.9920201
  35.0132479  73.7737407   8.4975156  33.8879420  73.7187027   9.5087214
  32.7550088  76.2828167   0.1235229  32.6301228  75.4817906  -0.3853826
  33.4129180  76.7774360  -0.3650801  24.3758257  62.6376899  -0.6987631
  23.6544842  63.2512867  -0.8380158  25.1651512  63.1734664  -0.7770985
  34.8184997  74.0837187   1.7514779  33.8715332  73.9642538   1.6793106
  35.1667770  73.1959685   1.8341040  27.1784570  59.9731326   5.5753021
  27.7018972  60.2193622   6.3379330  26.9596903  60.8051360   5.1556158
  31.8231430  73.8789903  -2.0480869  31.6756393  72.9506610  -1.8673299
  32.6484924  73.9009994  -2.5323794  35.4265552  74.7018462  -0.9615996
  36.3512099  74.4961323  -1.0991545  35.2580855  74.4534863  -0.0526655
  28.3837115  60.9145021   3.2602691  28.0433936  60.1152834   3.6623371
  27.6776122  61.2146732   2.6879525  29.0353587  57.9994333   1.7130014
  29.8579656  57.5254811   1.5908905  29.2791651  58.7784817   2.2128701
  31.8192944  61.7327741  -7.0548752  32.0356559  62.6152378  -7.3559923
  31.3387012  61.3413954  -7.7843110  26.5592166  64.6913454  -0.4778007
  26.4136747  65.0053757   0.4146275  26.0817369  65.3098354  -1.0307108
  28.4188549  61.6816002  -0.4297117  28.4050117  60.7857095  -0.7664819
  29.1360977  61.6886665   0.2041169  30.2714679  62.1153342   1.6156010
  30.0132457  63.0370413   1.6140340  29.7399720  61.7183776   2.3056474
  27.8225445  60.5630382  -5.1609547  27.9441356  59.6347028  -4.9618660
  27.5327487  60.5769068  -6.0731232  30.6916635  58.2485292  -2.0242827
  30.7138332  58.3124626  -2.9790848  31.1084694  57.4089801  -1.8302321
  41.0700259  67.9840552  -3.9863605  41.5131405  67.2347877  -4.3844482
  40.1926770  67.9750688  -4.3689873  21.8203850  66.3588694   5.3539811
  21.0785586  66.5071330   5.9404441  21.4996594  66.6196960   4.4906560
  29.7647513  75.9004673   5.1520201  30.0734639  75.6553819   6.0242901
  30.5622995  76.1051311   4.6639071  27.3066524  62.0762379   9.0480385
  27.3554680  62.9524502   8.6658155  27.8489038  61.5339772   8.4752029
  37.7921370  72.6203503   8.3281522  37.0016914  72.6027641   7.7886022
  37.5554724  73.1591796   9.0830559  37.9119245  69.4695969   5.6414251
  37.9617250  69.3045976   6.5829774  37.8033168  68.6023228   5.2512132
  35.2023007  65.4526897   6.9573558  36.1032870  65.3133362   6.6657555
  35.2770982  65.6181352   7.8971735  29.5365813  62.8293752   5.8026744
  28.6669122  63.1227318   5.5309332  29.7725293  63.4134197   6.5234008
  39.4137442  71.8892910   5.8856272  39.1222250  72.2522891   6.7219733
  38.8009573  71.1759919   5.7069605  40.6133124  69.4545790  -1.5941157
  41.4480015  69.8935594  -1.4303597  40.7492253  68.9784443  -2.4132912
  37.6624630  67.0125525   4.3536330  38.1378752  67.2053171   3.5455182
  36.7390195  67.0684711   4.1079714  32.2404846  59.0473369   3.3192164
  32.7586790  59.7834396   2.9938653  31.8859979  59.3537362   4.1538923
  32.4917441  55.4673651  -1.1606939  32.7719194  54.7996840  -0.5346513
  33.2768048  55.6602747  -1.6732275  36.3626299  63.8891285   2.5864636
  37.3143722  63.9889383   2.6076860  36.1929749  63.0969554   3.0962720
  34.3840678  60.9746868   2.7724037  33.7890611  61.2551881   2.0770526
  34.0990375  61.4640769   3.5440778  38.8414377  67.1097405   1.7006936
  38.8090697  66.1713406   1.8866620  39.4515000  67.1881442   0.9672761
  38.9908865  63.9008448   1.7465219  38.4747914  63.1166905   1.5595148
  39.8748814  63.5727165   1.9111738  36.6519592  57.6449464  -2.2938968
  36.4544413  57.3364552  -1.4095636  37.2619298  58.3711103  -2.1641039
  44.6590927  68.1713412   0.8412972  45.3894315  67.9098700   1.4020676
  44.0497872  67.4342134   0.8815040  42.7406224  66.3121274   1.4387424
  42.0139387  66.1777239   0.8303915  42.3253511  66.6198103   2.2444142
  30.5636400  70.0311204   9.2034797  31.4839410  70.2089803   9.3974843
  30.5285983  69.0867249   9.0514496  23.5598473  67.9412239   1.8457578
  23.7784482  68.8729346   1.8645612  23.9724247  67.5820213   2.6312382
  32.4093239  57.5258371  -4.5442437  32.9624277  57.9453824  -3.8852414
  32.6463325  56.5994119  -4.5019481  28.4326338  63.5145444  11.2360327
  28.3323065  64.4639801  11.1672418  28.2147880  63.1863683  10.3636397
  35.7872046  59.6358896  -5.0363773  35.2070715  60.2943700  -5.4185720
  35.5207979  58.8136241  -5.4476355  34.2375612  59.0363954  -2.8342453
  34.7375391  59.1480488  -3.6428134  34.8811220  58.7325006  -2.1941644
  28.2957608  66.9442583  10.0525388  27.8124690  67.7442943  10.2589277
  28.3818547  66.9550528   9.0992832  24.2230946  70.8347118   2.0893822
  25.1774199  70.8031060   2.0223754  24.0243469  70.3737742   2.9044048
  24.8130328  69.4048234   4.6564620  25.6323217  69.8992313   4.6799457
  25.0867135  68.4880202   4.6282187  34.5696924  61.7958986  -5.9807425
  33.6822779  62.0808637  -6.1987230  34.9850913  61.6352750  -6.8280148
  37.9211460  61.8205507  -2.2653085  38.6971850  62.3101960  -1.9928469
  37.1959594  62.2463562  -1.8081216  40.3584019  62.5333127  -1.2079145
  40.9528509  62.2928862  -1.9185836  40.4310602  61.8140257  -0.5805608
  34.5437948  67.3113522  -5.7657134  34.4873149  67.7682074  -6.6049502
  35.0966290  66.5504207  -5.9434292  38.3542754  63.1003254  -4.9407015
  38.0979688  62.6999890  -4.1098807  37.7295622  63.8147048  -5.0656876
  42.6655091  65.8399327  -2.4335724  42.1054649  65.9092517  -1.6604161
  42.0598595  65.6640312  -3.1536227  20.0665242  63.7386368   5.3556817
  20.7124106  63.2285322   5.8444042  19.8582393  64.4755050   5.9300242
  32.5918634  70.8067215  10.8548958  33.4609794  70.9807868  10.4935592
  32.1125386  71.6261632  10.7324687  24.4062733  60.8853985   9.4531831
  25.2694195  60.5290790   9.6635156  23.8328144  60.5467880  10.1407235
  41.5420599  83.6218121   6.1541962  41.5309240  83.2270919   5.2822466
  41.7041239  82.8884194   6.7475734  38.2627860  86.4055233   5.1021146
  37.9717726  87.3100864   4.9867813  38.8984845  86.4471761   5.8165216
  46.7286226  73.8904102   2.6975027  46.3969551  74.7599513   2.4736242
  46.1331839  73.5740386   3.3769058  40.6955755  80.0288834   7.7203275
  39.9189089  80.5882754   7.7106139  41.3346318  80.5145617   8.2418145
  38.9502127  82.8374288   7.2821242  39.6916812  83.3759332   7.0056065
  38.2439113  83.4640576   7.4392793  44.4257467  84.9803428   5.8793403
  44.8340823  84.5385839   5.1348036  43.7034728  84.4056056   6.1327596
  40.7788537  79.9176035   3.2526960  41.6249732  80.3415448   3.3961609
  40.7187175  79.2609659   3.9465523  43.9287982  77.5780403   4.9108134
  43.6848914  78.3322464   4.3742409  44.2047913  77.9565751   5.7455381
  37.6863491  79.9913936   8.0836552  37.0562152  80.6730217   8.3171949
  37.5799579  79.8797017   7.1389690  31.2646166  79.9116222   1.4417467
  31.5154205  80.7963232   1.7075043  31.8005715  79.7320824   0.6692558
  36.9644234  74.2934702  10.4461803  36.5711179  73.7400900  11.1209447
  37.7810374  74.6045280  10.8368320  39.8812195  75.7092581   8.0382059
  40.6221908  76.3099734   7.9586522  40.1130118  74.9670218   7.4800102
  35.0253533  80.8948948   6.3160289  34.9107048  79.9934205   6.6167388
  34.1698050  81.1412645   5.9645106  42.1045370  88.8366688   7.9147790
  41.6609225  88.0503067   7.5968694  42.7662584  89.0245839   7.2491680
  40.6599663  86.6313618   6.7852699  41.1927999  85.8701906   6.5552007
  40.1313744  86.3387270   7.5276854  43.8269358  71.7373684   2.3146341
  43.4833627  72.6275325   2.2385452  44.1948320  71.5475341   1.4515926
  42.9065898  74.1078339   0.2795574  42.4030694  74.0708474  -0.5336620
  43.1996505  75.0171082   0.3392231  39.1508784  74.1917069  -0.7138244
  40.0161781  73.9959877  -1.0732355  39.2186293  73.9627420   0.2131113
  43.4344675  80.3739920   4.5145543  43.7894062  80.6011393   5.3740008
  44.0816806  80.7058297   3.8922798  37.3284538  77.4816451   1.2991884
  37.9683917  77.3405210   0.6014847  36.4962068  77.1950965   0.9230486
  35.8038079  78.8654533   3.2463695  36.4761133  78.6571895   2.5976344
  34.9767866  78.6676619   2.8068927  41.7063651  75.4916474   5.2629356
  41.0591567  76.1906424   5.1693832  42.4764667  75.9252618   5.6305604
  45.1142449  85.7565326   8.3379909  44.9627956  85.5275878   7.4209993
  45.1047129  86.7135928   8.3511254  36.2065577  82.1397136   4.0066132
  36.0685375  81.4077375   4.6077671  37.1170500  82.0506036   3.7250320
  38.8347877  81.8517096   3.4949812  39.5447496  81.2110288   3.4536430
  38.7917186  82.1029990   4.4175992  37.5476811  78.8382314   5.3145451
  37.0114168  78.3873052   5.9667048  36.9593520  78.9728222   4.5715916
  33.2815933  77.9738321   2.3998446  33.1974121  77.3663991   1.6648856
  32.4598639  78.4647340   2.4007942  45.8958641  73.4261478  -0.0852000
  44.9821721  73.6565705   0.0830207  46.3251743  73.5099922   0.7662032
  41.7152673  82.3571181   8.9013931  41.0393310  82.2565311   9.5716306
  42.5380307  82.2010395   9.3649928  35.4339949  76.0113259   3.7393431
  35.4981275  76.8728089   3.3270829  35.3707069  75.3987260   3.0065790
  34.9092221  78.0836391   7.3866466  35.5364260  77.7013468   8.0003990
  34.0520140  77.8650593   7.7522158  45.3086330  88.4899366   8.9920201
  45.8526234  89.1029324   8.4975156  44.7273175  89.0478945   9.5087214
  35.2152011  77.9668817  -0.6987631  34.4938597  78.5804784  -0.8380158
  36.0045267  78.5026582  -0.7770985  38.0178325  75.3023243   5.5753021
  38.5412727  75.5485540   6.3379330  37.7990658  76.1343278   5.1556158
  39.2230870  76.2436938   3.2602691  38.8827690  75.4444751   3.6623371
  38.5169876  76.5438649   2.6879525  39.8747342  73.3286251   1.7130014
  40.6973411  72.8546729   1.5908905  40.1185405  74.1076735   2.2128701
  39.2582303  77.0107919  -0.4297117  39.2443872  76.1149013  -0.7664819
  39.9754731  77.0178583   0.2041169  41.1108434  77.4445260   1.6156010
  40.8526212  78.3662330   1.6140340  40.5793474  77.0475694   2.3056474
  41.5310390  73.5777210  -2.0242827  41.5532086  73.6416543  -2.9790848
  41.9478449  72.7381719  -1.8302321  32.6597604  81.6880612   5.3539811
  31.9179340  81.8363247   5.9404441  32.3390349  81.9488878   4.4906560
  38.1460279  77.4054297   9.0480385  38.1948434  78.2816420   8.6658155
  38.6882793  76.8631690   8.4752029  46.0416762  80.7818815   6.9573558
  46.9426625  80.6425280   6.6657555  46.1164736  80.9473270   7.8971735
  40.3759567  78.1585669   5.8026744  39.5062877  78.4519235   5.5309332
  40.6119047  78.7426114   6.5234008  43.0798601  74.3765286   3.3192164
  43.5980545  75.1126313   2.9938653  42.7253734  74.6829280   4.1538923
  43.3311195  70.7965569  -1.1606939  43.6112949  70.1288758  -0.5346513
  44.1161802  70.9894665  -1.6732275  45.2234433  76.3038786   2.7724037
  44.6284365  76.5843799   2.0770526  44.9384130  76.7932687   3.5440778
  41.4030155  85.3603122   9.2034797  42.3233164  85.5381721   9.3974843
  41.3679738  84.4159167   9.0514496  34.3992227  83.2704156   1.8457578
  34.6178237  84.2021264   1.8645612  34.8118001  82.9112131   2.6312382
  39.2720093  78.8437362  11.2360327  39.1716819  79.7931719  11.1672418
  39.0541635  78.5155601  10.3636397  39.1351363  82.2734501  10.0525388
  38.6518444  83.0734861  10.2589277  39.2212302  82.2842446   9.0992832
  35.0624700  86.1639036   2.0893822  36.0167954  86.1322978   2.0223754
  34.8637224  85.7029659   2.9044048  35.6524082  84.7340152   4.6564620
  36.4716971  85.2284230   4.6799457  35.9260890  83.8172120   4.6282187
  30.9058996  79.0678286   5.3556817  31.5517860  78.5577240   5.8444042
  30.6976148  79.8046967   5.9300242  43.4312389  86.1359133  10.8548958
  44.3003548  86.3099785  10.4935592  42.9519140  86.9553550  10.7324687
  35.2456487  76.2145903   9.4531831  36.1087949  75.8582707   9.6635156
  34.6721898  75.8759797  10.1407235  47.8037988  89.6226619  10.4461803
  47.4104934  89.0692818  11.1209447  48.6204129  89.9337198  10.8368320
  46.0850242  91.5437820   9.4531831  46.9481703  91.1874625   9.6635156
  45.5115653  91.2051715  10.1407235  41.5420600  60.6280244  -7.1212731
  41.5309241  60.2333042  -7.9932227  41.7041240  59.8946316  -6.5278959
  38.2627862  63.4117356  -8.1733547  37.9717728  64.3162986  -8.2886881
  38.8984846  63.4533883  -7.4589477  40.6955756  57.0350957  -5.5551419
  39.9189090  57.5944877  -5.5648554  41.3346319  57.5207740  -5.0336549
  38.9502129  59.8436410  -5.9933452  39.6916813  60.3821454  -6.2698628
  38.2439114  60.4702699  -5.8361900  44.4257468  61.9865551  -7.3961290
  44.8340824  61.5447961  -8.1406658  43.7034730  61.4118178  -7.1427097
  43.9287984  54.5842526  -8.3646560  43.6848915  55.3384586  -8.9012284
  44.2047914  54.9627873  -7.5299313  37.6863492  56.9976058  -5.1918142
  37.0562153  57.6792339  -4.9582745  37.5799580  56.8859140  -6.1365003
  36.9644235  51.2996824  -2.8292891  36.5711181  50.7463023  -2.1545246
  37.7810375  51.6107403  -2.4386373  39.8812196  52.7154703  -5.2372634
  40.6221909  53.3161856  -5.3168172  40.1130119  51.9732341  -5.7954591
  35.0253534  57.9011071  -6.9594404  34.9107049  56.9996328  -6.6587305
  34.1698052  58.1474767  -7.3109588  42.1045372  65.8428811  -5.3606904
  41.6609226  65.0565189  -5.6785999  42.7662585  66.0307961  -6.0263013
  40.6599664  63.6375740  -6.4901994  41.1928001  62.8764028  -6.7202686
  40.1313745  63.3449392  -5.7477840  43.4344676  57.3802043  -8.7609151
  43.7894064  57.6073516  -7.9014685  44.0816807  57.7120419  -9.3831896
  45.1142451  62.7627449  -4.9374784  44.9627957  62.5338001  -5.8544701
  45.1047130  63.7198050  -4.9243439  41.7152674  59.3633304  -4.3740763
  41.0393311  59.2627433  -3.7038387  42.5380308  59.2072518  -3.9104765
  45.3086331  65.4961489  -4.2834492  45.8526235  66.1091447  -4.7779537
  44.7273176  66.0541067  -3.7667479  38.1460280  54.4116420  -4.2274308
  38.1948435  55.2878542  -4.6096538  38.6882794  53.8693813  -4.8002665
  46.0416763  57.7880937  -6.3181136  46.9426626  57.6487402  -6.6097138
  46.1164738  57.9535392  -5.3782958  40.3759568  55.1647792  -7.4727949
  39.5062878  55.4581358  -7.7445361  40.6119049  55.7488237  -6.7520686
  41.4030156  62.3665244  -4.0719897  42.3233165  62.5443843  -3.8779850
  41.3679739  61.4221290  -4.2240197  39.2720094  55.8499485  -2.0394367
  39.1716821  56.7993842  -2.1082275  39.0541636  55.5217724  -2.9118296
  39.1351364  59.2796624  -3.2229305  38.6518446  60.0796984  -3.0165416
  39.2212303  59.2904568  -4.1761861  35.6524083  61.7402274  -8.6190073
  36.4716972  62.2346353  -8.5955236  35.9260891  60.8234242  -8.6472506
  43.4312390  63.1421256  -2.4205736  44.3003550  63.3161908  -2.7819101
  42.9519141  63.9615672  -2.5430006  35.2456489  53.2208025  -3.8222862
  36.1087950  52.8644830  -3.6119538  34.6721899  52.8821920  -3.1347458
  47.8037989  66.6288742  -2.8292891  47.4104935  66.0754940  -2.1545246
  48.6204130  66.9399320  -2.4386373  46.0850243  68.5499943  -3.8222862
  46.9481705  68.1936748  -3.6119538  45.5115654  68.2113838  -3.1347458
 104.0804291 104.0804291 104.0804291 109.4712190 109.4712190 109.4712190
