default_name
 80429
  73.6596707  81.1334089  54.3179376  74.3903553  80.6965069  54.8615345
  72.8367344  80.5498260  54.2731624  74.0359324  81.4454670  53.4344967
  73.2353768  82.3951060  54.9948105  72.7854521  82.0328131  55.9200633
  74.4692217  83.2223050  55.4733810  75.3193464  82.9348515  54.8550773
  74.1830575  84.2702692  55.5605935  74.6452008  82.7438477  56.9507381
  73.7632254  82.9396242  57.5595089  74.8977809  81.6838969  56.9805487
  76.1472354  83.6057558  57.6783357  76.1317252  82.8753204  59.3694423
  76.4877363  81.8577029  59.2090349  76.7186150  83.3275704  60.1681821
  75.0637760  82.7914713  59.5731524  72.2162330  83.0935434  54.1031395
  71.8134408  82.5406313  53.0613211  71.6115753  84.1997260  54.4904678
  71.7788256  84.3966267  55.4671640  70.6107065  84.9728927  53.7485919
  69.7294255  84.4231844  53.4181519  70.1448181  86.1452182  54.5830389
  70.9912804  86.4471776  55.2009945  69.5473313  87.3359019  53.8041687
  69.3779196  88.1253383  54.5363488  70.3002180  87.6919002  53.1003102
  68.6044322  87.0800714  53.3204445  69.0567595  85.5149647  55.5004036
  68.2112425  85.0931151  54.9563025  69.4463919  84.6868142  56.0896526
  68.6059480  86.5524804  56.6219343  67.9344880  86.0130013  57.2880768
  69.4652527  86.8544265  57.2196643  67.9889880  87.3856974  56.2839272
  71.1759737  85.4952222  52.3637291  72.4013857  85.7481041  52.2413479
  70.3153380  85.5243201  51.3778997  69.3935876  85.2123786  51.6515012
  70.6029209  85.9336580  49.9827726  71.6411084  86.2549691  49.9034894
  70.4226424  84.7349905  49.0116202  69.4837156  84.2181834  49.2102752
  70.3676108  85.1846562  48.0206094  71.4929194  83.6326147  48.9770428
  71.5413432  83.0893523  49.9207568  71.0842077  82.5272547  48.0109894
  71.9423912  81.8712778  47.8682437  70.1941191  81.9880967  48.3358952
  70.9248486  82.8826884  46.9922639  72.8144295  84.2200695  48.3782667
  73.6512513  83.5517227  48.5760715  72.5374868  84.4746199  47.3558481
  73.1384156  85.1579665  48.8313642  69.5849759  87.0023024  49.5046585
  68.5172140  87.1503193  50.0280280  69.9896776  87.8814584  48.5159366
  70.9239248  87.8810579  48.1333976  69.0922795  88.7389413  47.7771594
  68.3264673  89.0844450  48.4718016  69.7729408  89.9919191  47.2683224
  68.9581398  90.6977798  47.1087511  70.8219361  90.6258986  48.1538375
  71.6791750  89.9536435  48.1070143  71.0641462  91.6187841  47.7759609
  70.3848886  90.6777639  49.1511681  70.3614833  89.6424634  46.0542634
  70.7941937  90.4297696  45.7139742  68.3873940  87.9747599  46.6202021
  68.7531060  86.9095327  46.2492306  67.4549734  88.5754284  45.8864024
  67.0467060  89.4658552  46.1320787  66.7722130  87.8728097  44.7358880
  66.4328528  86.8955998  45.0790638  65.5368285  88.6328394  44.3041858
  64.9795581  88.8591650  45.2130007  65.8163318  89.5619815  43.8097631
  64.5685696  87.8950391  43.3792770  64.3388506  86.9098982  43.7847578
  63.6728048  88.5170158  43.4036984  65.0807285  87.7877563  41.8655384
  65.1706558  88.7975783  41.4633907  65.9944635  87.2108957  41.7299791
  63.9740318  87.1102572  40.9890002  63.6249344  86.1764954  41.4274201
  63.1495005  87.8154646  40.8936075  64.5541487  86.7436741  39.6852045
  63.8554030  86.4043826  39.0399334  64.9529335  87.5195392  39.1738681
  65.4150322  86.2196098  39.7619782  67.8580531  87.6258579  43.6184933
  67.9673873  86.5221947  43.0759581  68.5963693  88.6677430  43.3090700
  68.4194114  89.5250082  43.8120443  69.5108156  88.5981862  42.0990461
  69.1165027  87.8790482  41.3806362  69.6666877  90.0254357  41.5399826
  68.7827565  90.4427735  41.0567655  69.9522032  90.7657717  42.2874400
  70.4898385  90.1648560  40.8402407  70.7754600  87.8958620  42.4500579
  71.4833723  87.3321439  41.5843628  71.1554032  87.7799707  43.7671978
  70.4764538  88.0374140  44.4702800  72.1148457  86.7509480  44.2170881
  72.9548911  86.8328266  43.5272218  72.6311552  87.0875771  45.6275846
  71.7444831  87.4687748  46.1343657  73.0351959  86.2093190  46.1306907
  73.7228960  88.1298917  45.8666646  74.5265727  87.8247031  45.1984605
  73.4336022  89.1253706  45.5260284  74.3600828  88.2259882  47.2418382
  73.9461611  87.7287960  48.2458117  75.4496406  88.9603317  47.4001835
  76.1052829  89.1296504  46.6511672  75.8495126  89.0295678  48.3248228
  71.6317762  85.2766497  44.0227319  72.4138017  84.4484088  43.5968924
  70.3393532  84.9764785  44.2715893  69.7099232  85.6707266  44.6508285
  69.8683198  83.5113830  44.1742611  70.5656655  82.8573030  44.6985639
  68.4686403  83.3795461  44.8418614  68.6516798  83.6248626  45.8876345
  67.7182580  83.9941933  44.3458108  67.9731973  81.9185609  44.8007228
  67.4624169  81.4494123  43.5575285  67.2093311  82.1305252  42.7595118
  67.0042059  80.0662889  43.4500928  66.5130602  79.7480273  42.5419263
  67.1219774  79.1997617  44.5719438  66.7314754  77.8954090  44.4753105
  66.6251079  77.5913328  43.5715574  67.7298690  79.6638937  45.8379905
  67.8778823  78.9106499  46.5988064  68.2282899  81.0000111  45.8701760
  68.7669085  81.3682170  46.7305314  69.8681353  83.2295089  42.6490346
  70.4044503  82.2008817  42.2779371  69.3326866  84.1050893  41.8076169
  68.9798580  84.9903336  42.1432304  69.4614164  83.9455288  40.3130902
  68.7967688  83.1476134  39.9822254  68.9710407  85.2269394  39.5666214
  69.4873748  86.0857533  39.9937746  69.4108959  85.1970435  38.5699712
  67.4683180  85.4770299  39.5120946  66.6885918  84.8489778  40.2074474
  67.0836420  86.4616488  38.8619600  70.8829516  83.7354308  39.8346693
  71.1361370  83.0198508  38.9293846  71.9200098  84.3441116  40.4149787
  71.7161973  85.1193411  41.0291599  73.3554745  84.1119589  40.0018308
  73.4254527  84.1763211  38.9151286  74.1615109  85.2798767  40.6299824
  73.5750665  86.1548401  40.3554263  74.3329543  85.1386921  41.6974242
  75.5391224  85.3587490  39.9117682  76.0639868  84.5093084  40.3482394
  75.2623225  85.3690259  38.8572175  76.1753155  86.6891356  40.2982276
  77.3316457  86.7396639  40.6307427  75.5260313  87.7563243  40.4665468
  73.8484827  82.7534360  40.5083479  74.6778414  82.1197408  39.9679634
  73.3203924  82.2849770  41.6641303  72.5841215  82.8298839  42.0888028
  73.5806001  80.9002192  42.1574290  74.6491956  80.7038287  42.0608140
  73.3178384  80.9201970  43.7076075  72.3874591  81.4747970  43.8325635
  73.1951779  79.4903263  44.2274903  72.3078285  78.9859177  43.8468396
  74.1170107  78.9285401  44.0700179  73.1338202  79.5450719  45.3142967
  74.5097021  81.7140828  44.3180559  75.3631219  81.0529712  44.1623510
  74.6307191  82.6319713  43.7431319  74.1959771  82.0240421  45.7556354
  74.0516005  81.1004522  46.3156320  74.9472449  82.5474003  46.3475601
  73.2532033  82.5696220  45.7482812  72.7881410  79.8707768  41.2554413
  73.3135961  78.8186259  40.7833751  71.5097425  80.1623395  40.9570299
  71.0399914  80.9394875  41.3985930  70.6466495  79.3206195  40.1287794
  70.5223049  78.3481173  40.6040275  69.2074116  80.0235493  40.0553765
  69.3108105  80.9751659  39.5340623  68.4839302  79.3281617  39.6315137
  68.9300219  80.0674880  41.1083538  71.1880255  79.0718206  38.6708668
  71.0617869  78.0257499  38.1476596  71.8350704  80.0899865  38.1209649
  71.7383684  81.0408272  38.4474013  72.5344805  79.9769652  36.8501770
  71.8955356  79.5749680  36.0633933  72.8367979  81.4526902  36.4040424
  71.9033957  82.0160699  36.3594143  73.3878070  81.8599824  37.2519185
  73.6366571  81.5199397  35.0605537  74.0714971  82.4731991  34.7616044
  74.5505572  80.9284835  35.1075018  72.7518007  81.1170131  33.8665100
  71.5543120  81.3334130  33.9136057  73.3126575  80.5656975  32.8324289
  74.3034819  80.3693604  32.8227946  72.6654205  80.1843517  32.1581874
  73.8721210  79.2574111  36.9610312  74.1602182  78.3905461  36.1830298
  74.6703703  79.5199629  37.9950620  74.5281037  80.3368646  38.5705711
  75.9322883  78.8297419  38.2972161  76.6291257  79.0799543  37.4984587
  76.4391850  79.3110043  39.5944490  76.5883605  80.3802059  39.4481699
  75.6377701  79.1493556  40.3152255  77.9590246  78.4658368  39.9537781
  78.6651528  79.0602530  38.9874457  75.7547071  77.3322341  38.3235456
  76.3428772  76.5741264  37.5207824  74.8344304  76.8223831  39.1523639
  74.2889626  77.4634478  39.7118691  74.5755022  75.4037245  39.4154853
  75.5483305  74.9119157  39.4262140  73.7913747  75.2042660  40.7830428
  72.7755286  75.5836178  40.6700209  73.6679103  74.1285151  40.8950721
  74.2928199  75.8484065  42.0508479  74.5192236  76.8951142  41.8418805
  73.2721118  75.8633244  43.1546737  73.7520593  76.5395170  43.8628651
  72.3735659  76.3536686  42.7803946  73.0368993  74.8424454  43.4551850
  75.5607729  75.2150064  42.4025799  75.4123766  74.1941823  42.7516397
  76.3078126  75.1974009  41.6079908  76.0189711  75.7107918  43.2584609
  73.9220966  74.6529718  38.2753356  73.7906649  73.4766797  38.4346827
  73.7253685  75.2836677  37.0767094  73.8052849  76.2894176  37.0324992
  73.3668560  74.4730594  35.8807353  73.5234817  73.4180821  36.1003380
  71.8527606  74.7258738  35.5441850  71.4962287  74.0106549  34.8020005
  70.9367402  74.5795009  36.7972080  71.2852826  73.6952911  37.3320239
  71.0638816  75.3753131  37.5312843  69.8901361  74.4218747  36.5349295
  71.5717222  76.2280449  35.1346372  70.5465730  76.2667894  34.7645198
  71.7801333  76.9325456  35.9390659  72.2714498  76.3468470  34.3077906
  74.3510839  74.7426217  34.7160308  74.1100957  74.3650628  33.5805978
  75.5416497  75.3536702  34.9671217  75.6321956  75.6782763  35.9199481
  76.6485409  75.5302388  33.9546764  76.5165662  74.8446074  33.1176834
  76.6941760  77.0246640  33.5215623  77.4920137  77.2120739  32.8053203
  75.8776276  77.3831564  32.8952166  77.0203336  77.9159098  34.5386739
  76.3779499  77.8415953  35.2488779  77.9382451  75.0968929  34.5986449
  78.9790108  75.1636085  33.9448676  77.9439988  74.7561854  35.9065166
  77.0654309  74.6788463  36.3986245  79.0811728  74.5430041  36.8434905
  79.8845614  74.1919286  36.1942681  79.5105520  75.7708202  37.6018750
  78.7269417  75.8576608  38.3562387  80.9176182  75.4279640  38.1524959
  80.7854441  74.7059334  38.9573311  81.7506853  75.1293343  37.5171884
  81.2979670  76.2184225  38.7993978  79.5128509  77.0742771  36.6546110
  80.0382835  77.8694430  37.1828095  80.0260415  76.8871489  35.7099696
  78.5034247  77.4694243  36.5444684  78.7631073  73.3371916  37.7986902
  77.7794522  73.5156260  38.5139810  79.4312072  72.1418991  37.6972841
  80.5154410  71.8168165  36.7415370  81.1989118  72.6655097  36.7529079
  80.0703975  71.7183229  35.7516480  81.2108630  70.6475482  37.3286912
  81.9995214  70.9698994  38.0088150  81.6509619  69.9825258  36.5857617
  80.1257832  69.9103886  38.0510399  80.5344741  69.2268081  38.7966165
  79.6432442  69.3539293  37.2485181  79.2642361  70.9891042  38.6495517
  78.2208759  70.6780293  38.6269062  79.6036499  71.4931371  40.1157696
  80.2341247  72.4824796  40.3135144  79.2059315  70.6911541  41.1514444
  78.3696900  69.5346442  41.1143237  78.9218149  68.6961830  40.6900009
  77.5057380  69.7788009  40.4967669  77.9073474  69.2594992  42.5484546
  78.3745661  68.4597761  43.1209925  76.8615818  68.9898982  42.6971542
  78.0709187  70.5754006  43.2849966  78.1771916  70.5743082  44.3689610
  77.2171094  71.2206417  43.0729598  79.3162249  71.1654891  42.5732115
  79.1419343  72.2394964  42.6379955  80.6745956  70.7725241  43.2304948
  80.6302409  70.3864829  44.3806008  81.7412786  70.7750788  42.4676822
  81.6879820  71.0954880  41.5101942  83.0239983  70.3318751  42.8944227
  82.9210990  69.3226819  43.2959968  83.9996494  70.2366156  41.7399897
  84.9738956  69.9853780  42.1619293  83.8249336  69.0092949  40.8347845
  82.7883329  68.9339497  40.5096828  84.3986256  68.8451549  39.9226105
  84.1212147  68.1640961  41.4558437  84.1924373  71.4601248  41.0066330
  84.8233144  71.2765811  40.3071426  83.5158132  71.2688191  43.9687300
  83.1263743  72.4216224  44.0569959  84.4844895  70.8505692  44.7886168
  84.7491565  69.8872664  44.6387998  84.9931979  71.6260128  45.8565025
  84.2395175  72.0984356  46.4873690  85.8796934  70.7862714  46.7566964
  86.6794339  70.3006474  46.1959241  86.3830453  71.3952632  47.5069864
  84.9765962  69.7467230  47.4898305  84.2363899  70.1979767  48.1519111
  84.4925987  69.0960618  46.7617457  85.6701152  68.7362745  48.4196413
  86.5169370  68.2831209  47.9036242  85.9764395  69.1821288  49.3657177
  84.8210792  67.5275210  48.6215936  84.2162067  67.1883889  47.8880457
  84.6753826  66.6902536  49.6198911  85.2507319  66.9005237  50.7177590
  85.8803803  67.6887243  50.6631543  85.3422200  66.1924328  51.4326171
  83.9884084  65.6361556  49.4695756  83.3656479  65.5097159  48.6868040
  83.9268915  64.9740423  50.2292502  85.9356211  72.8378670  45.4689074
  85.8994386  73.8482768  46.1133280  86.6425962  72.7281634  44.3096174
  86.6771590  71.8144278  43.8792774  87.2337032  73.9809349  43.7390229
  87.9566195  74.3906039  44.4430544  87.8890610  73.5243261  42.4463259
  88.6922412  72.8864985  42.8160197  87.1807953  72.9939230  41.8103650
  88.5344836  74.7043706  41.6659729  89.0005994  75.4370206  42.3234667
  89.2791988  74.3673348  40.9451732  87.5887435  75.5574467  40.7795725
  86.5139085  75.1898004  40.4060124  87.9665631  76.6863953  40.3326604
  88.7314636  77.1838027  40.7656489  87.4005743  77.1516346  39.6362718
  86.0638608  75.0094593  43.5105838  86.1844446  76.1244583  44.0419713
  84.8847250  74.6097317  42.9763343  84.8739078  73.6361771  42.7099953
  83.7405939  75.4259328  42.6397667  84.0848624  76.2342476  41.9934748
  82.6969146  74.6410095  41.8765372  83.1557979  74.3290149  40.9388296
  82.2028544  73.8299127  42.4136288  81.6377420  75.4745754  41.4664407
  80.8834550  74.9472545  41.1912575  83.0434489  76.0532368  43.8564246
  82.6960435  77.2600560  43.8099149  82.8421796  75.2518009  44.9147370
  83.0504498  74.2801810  44.7341593  82.2324799  75.6323379  46.2089854
  81.2770648  76.1492080  46.1108571  81.9473023  74.3746410  46.9562828
  82.9412650  73.9308078  47.0106083  81.6007285  74.6396814  47.9560379
  80.9594972  73.4768250  46.3154760  81.2859800  73.1298184  45.3350569
  80.8632819  72.1788285  47.1785801  81.8787221  71.8011725  47.3061264
  80.2830027  72.3398054  48.0863265  80.1965600  71.4788981  46.6760045
  79.5495136  74.0430055  46.2011609  78.8916023  73.2508966  45.8446076
  79.2812933  74.4406966  47.1799753  79.5391680  74.8517465  45.4700713
  83.1269163  76.6321273  47.0421012  82.5868889  77.5103926  47.7420565
  84.4212884  76.5825174  46.9166875  84.7451114  75.8551028  46.2960083
  85.3707409  77.6120902  47.3209966  85.2118579  78.0422355  48.3086469
  86.7926455  77.0365909  47.2740415  87.0975735  76.5938011  46.3256845
  87.3591236  77.9433946  47.4879658  87.0321857  76.0618148  48.5167913
  86.6129249  76.5660752  49.3880615  86.5588036  75.0921197  48.3635533
  88.5291399  75.8813852  48.7973182  89.0035921  76.8622764  48.8183273
  88.6888026  75.2792196  49.6921515  89.2008488  75.1384147  47.6769687
  89.8798383  75.6438751  47.1257873  89.1194628  73.8376434  47.3281659
  88.6076464  72.9666799  48.1401951  87.9193134  73.2108526  48.8387124
  88.6833825  71.9909095  47.8909917  89.5421688  73.3741942  46.2301875
  90.0243066  73.9525850  45.5577233  89.4589594  72.3843419  46.0524756
  85.3375311  78.8848045  46.3812181  85.2169482  80.0188593  46.8383729
  85.1422817  78.7387282  45.0665709  85.0138241  77.8273585  44.6505397
  85.0464158  79.8820582  44.1920605  85.8716949  80.5643816  44.4001813
  85.1165573  79.3802798  42.7251810  85.9985147  78.7544181  42.5833702
  84.2548252  78.7365726  42.5434791  85.1036912  80.4345636  41.5879887
  85.0020865  79.9458465  40.6182123  84.2631777  81.0773024  41.8500931
  86.3739317  81.2992524  41.6244902  86.4422297  81.7419401  42.6188830
  87.2959614  80.7559529  41.4130901  86.3584428  82.4405796  40.5932108
  85.5157151  83.0686015  40.8840296  87.3041868  82.9798769  40.6102355
  86.1760289  81.9613635  39.2298286  86.9605166  81.3748414  38.9783909
  85.2912442  81.4808450  39.1503617  86.1002124  82.6969925  38.5429000
  83.7770687  80.6784568  44.4985994  83.8826277  81.8631513  44.6773203
  82.6242429  80.0115298  44.6716951  82.6564584  79.1143314  44.2079633
  81.3139833  80.5101864  45.1517559  80.9941455  81.2621639  44.4295242
  80.3365258  79.3374906  45.1838383  80.8272714  78.4105194  45.4823098
  79.5256287  79.6247808  45.8527599  79.7068225  78.9186555  43.8679675
  80.4949611  78.7606614  43.1319523  78.7607049  77.6602208  43.9289059
  78.0202945  77.6738317  44.7295857  78.1707348  77.6195205  43.0128356
  79.4032046  76.7943000  44.0858269  78.7697477  80.0072876  43.4395576
  79.3261161  80.9078914  43.1796883  78.3636276  79.8113098  42.4458206
  77.9133277  80.2557219  44.0650639  81.4815816  81.2280857  46.4929153
  81.1498509  82.4314112  46.5518337  82.1580114  80.7222728  47.5115625
  82.4120404  79.7464127  47.4613003  82.5446276  81.4887818  48.6721610
  81.6022844  81.8019824  49.1204005  83.1925142  80.5644538  49.7050007
  84.0385658  80.0041482  49.3068811  83.5166406  81.2559014  50.4827914
  82.0827156  79.6945113  50.3561689  81.2915204  80.3057406  50.7898771
  81.6546778  78.9866730  49.6457559  82.6869337  78.7620129  51.4523592
  81.9407931  78.0443446  51.7972410  83.4109100  78.1074985  50.9711534
  83.4096665  79.5280043  52.5859885  84.1188820  78.9997182  53.2220680
  84.0115501  80.3220026  52.1457512  82.3766700  80.2285531  53.4012190
  81.6849669  80.5947109  52.7632149  81.9238481  79.5953309  54.0462042
  82.8215610  80.9550732  53.9444765  83.3638372  82.7809376  48.4150231
  83.0455887  83.8520376  48.9237144  84.4085953  82.7097776  47.6331467
  84.5256715  81.7957212  47.2209851  85.2596979  83.7946817  47.1109663
  85.6784751  84.2930012  47.9859670  86.4635141  83.1873714  46.3824318
  86.8021027  82.2556510  46.8374877  86.1445834  82.8697081  45.3895031
  87.6291775  84.1408365  46.1650862  87.2771263  85.0888042  45.7568468
  88.0635179  84.3810878  47.1339942  88.5979591  83.5909835  45.1053292
  88.9060183  82.3966248  44.9412905  89.1417988  84.5468163  44.3925860
  88.8687077  85.5117061  44.5097607  90.0005259  84.3939265  43.8823963
  84.4941991  84.8799562  46.2975727  84.9279744  85.9994778  46.3444279
  83.3225815  84.5714815  45.7752550  83.0829748  83.5909271  45.7677913
  82.2795922  85.5249697  45.2386960  82.7796337  86.4221107  44.8733502
  81.4689275  84.6825303  44.1967711  81.1746992  83.7444517  44.6657318
  80.5654284  85.2773580  44.0612484  82.1909455  84.3330381  42.9034134
  82.4387841  85.2976580  42.4596628  83.0882148  83.8542163  43.2930419
  81.4492981  83.4713323  41.8886621  82.0106543  83.5486153  40.9569751
  81.1291539  82.5127755  42.2953973  80.1997212  84.0281955  41.4000745
  79.8494553  84.8150495  41.9272886  79.5068108  83.6892693  40.3250968
  79.6773372  82.5466833  39.8065102  80.0816499  81.7660513  40.3058677
  79.0197265  82.3107189  39.0781702  78.6745319  84.4900960  39.7286663
  78.4984720  85.4174345  40.0876443  78.2204795  84.2581294  38.8572457
  81.1773467  86.0354371  46.2279254  80.9463007  87.2897277  46.2745497
  80.7621974  85.1723844  47.1689658  80.9858082  84.1887879  47.1060198
  79.5976507  85.4122898  48.0920679  79.1630165  86.4075805  47.9942179
  78.3865489  84.5596034  47.7738101  78.6271567  83.5064106  47.9214002
  77.5344407  84.8864124  48.3685298  77.8431666  84.6831204  46.3763738
  77.2209554  85.8900138  45.9565174  76.9178312  86.6701209  46.6393018
  76.7853959  86.0643200  44.5891428  76.4618737  87.0040714  44.1682703
  77.0481838  84.9920679  43.6998825  76.7797810  85.1609849  42.6676654
  77.6890927  83.8413943  44.1159005  77.9308258  83.0111193  43.4676895
  78.1152852  83.6713240  45.4277835  78.6435525  82.7668589  45.6868773
  80.1021748  85.3175789  49.5368988  80.1706445  84.2250807  50.0824934
  80.3267142  86.4958110  50.2151394  80.3166021  87.8421344  49.6060136
  79.2631567  88.1173047  49.5596664  80.8144286  87.8823879  48.6374242
  81.1072464  88.7282042  50.5313685  80.7269720  89.7492869  50.5521684
  82.1322370  88.6588413  50.1654068  80.9672730  88.0487828  51.9707601
  80.0249505  88.4180968  52.3736864  81.8692842  88.2556888  52.5480075
  80.8416894  86.5944848  51.5954788  81.8712327  86.2400684  51.6404962
  79.9408919  85.9689966  52.7252383  78.7397514  86.3214012  52.8418636
  80.5384864  85.0804903  53.5365097  81.5215077  84.9217883  53.3697617
  79.8814168  84.3011252  54.5696638  80.6219448  83.5893039  54.9327517
  79.8069636  85.2217464  55.8225574  79.1466593  86.0278082  55.5040663
  79.3196471  84.7161950  56.6571192  81.1303261  85.8046833  56.2613709
  81.1275067  85.8058595  57.2225684  78.6061029  83.5509264  54.1980574
  77.5094508  83.8241907  54.6839644  78.8353727  82.5874252  53.2690004
  79.8105448  82.3494524  53.1545259  77.8481355  81.5158992  52.9863353
  76.9493729  81.6249211  53.5937503  77.6029697  81.8011614  51.5613412
  78.5988636  81.7941276  51.1180266  76.9629824  81.0742161  51.0608766
  76.9632961  83.1542097  51.2694802  77.5843983  84.0217937  51.4882017
  76.7805629  83.2313081  50.1970878  75.6028709  83.3248473  51.9805928
  74.8788547  82.3248688  52.2932340  75.1481925  84.5280369  52.1647024
  75.6408406  85.3110939  51.7613149  74.1629659  84.6470276  52.3500018
  78.4941426  80.1216052  53.0391865  79.6271577  79.8862833  52.5082116
  77.8692409  79.1155861  53.6786883  77.0333117  79.4033606  54.1663307
  78.4448491  77.7104629  53.9013769  79.5016621  77.7552325  54.1647244
  77.7064114  77.0562543  55.0621597  78.1570061  76.0838573  55.2617454
  77.9498493  77.7132687  55.8958318  76.2958879  76.8995711  54.7500141
  75.9373169  76.2354440  55.3425814  78.3434713  76.9113004  52.6489425
  77.3505734  76.9312407  51.9210819  79.3560141  76.0224081  52.5100266
  80.0124362  76.0538795  53.2764609  79.2443412  74.8857696  51.5912448
  79.3798840  75.1048567  50.5320290  80.4062103  73.9047641  51.9143644
  80.3393738  73.5447305  52.9406634  80.3525662  73.1220730  51.1573321
  81.7801639  74.5768286  51.6152763  81.5902259  75.1157946  50.6873187
  81.9454525  75.3673812  52.3455935  82.9373225  73.7144497  51.2404635
  82.8717526  72.5076410  51.0449248  84.0631233  74.2913281  50.9853500
  84.1664139  75.2841824  51.1375917  84.8496465  73.7544336  50.6516144
  77.9184401  74.0673336  51.6578091  77.2937912  73.8055896  50.6264693
  77.3319423  73.8929209  52.8738105  77.8941214  74.2381050  53.6380936
  76.0449702  73.2748089  53.1251039  75.9803385  72.3004389  52.6383464
  75.8369007  73.0183637  54.6242619  75.3659799  73.8852956  55.0860853
  75.1046673  72.2377731  54.8314688  76.7203016  72.6433018  55.1379169
  74.9082501  74.0347883  52.5157100  73.9765583  73.4130291  51.9684443
  74.9722930  75.3838457  52.5983462  75.8230926  75.6708752  53.0617402
  73.9675978  76.3667146  52.0177040  72.9586819  76.0815833  52.3114894
  74.1619032  77.8852048  52.4294088  75.1153921  78.2735901  52.0727230
  73.2095899  78.8528690  51.6900028  73.0394100  79.7427108  52.2933257
  73.5631374  79.0492947  50.6774604  72.2029890  78.4479723  51.5909360
  73.9864462  78.0932825  53.7803679  74.7613843  77.8171474  54.2751733
  73.9359626  76.2940179  50.4392920  72.9687200  75.8201275  49.8835450
  75.0842389  76.5289714  49.8502561  75.8354236  76.9133330  50.4067700
  75.2491267  76.3290092  48.3793577  74.6551359  77.0656347  47.8379089
  76.7184271  76.6654699  48.0909974  77.3025446  75.9662978  48.6910700
  76.8781396  76.4222513  47.0401670  77.1461375  78.1261361  48.4571778
  77.2540838  78.2567769  49.5326245  78.5239625  78.2240053  47.8874631
  78.8416587  79.2653013  47.9144584  79.2083504  77.6028811  48.4637371
  78.6699829  77.8411461  46.8781659  76.3424520  79.2267237  47.8477531
  76.7124253  80.2287334  48.0633159  76.5054155  79.1117188  46.7750212
  75.2968072  79.3245893  48.1384819  74.8610354  74.8856537  47.9712289
  74.2379306  74.7225107  46.9258726  75.1849893  73.8346581  48.7503129
  75.7843299  73.9947936  49.5470164  74.7692066  72.4576725  48.4048516
  74.9639325  72.4100531  47.3327130  75.6302020  71.3831306  49.0978658
  75.5423671  71.5986508  50.1629578  75.1718442  70.4284443  48.8374736
  77.1146239  71.3566694  48.6415531  77.4481137  72.3820273  48.4786918
  77.9544318  70.5559316  49.6169933  78.0852388  71.1275035  50.5349497
  77.6057440  69.5383711  49.7921517  79.0123559  70.5687014  49.3511444
  77.1902057  70.5945142  47.2805473  76.5738835  71.0007047  46.4792120
  78.2156849  70.5762425  46.9089783  76.7304235  69.6162845  47.4275612
  73.2836570  72.2061359  48.6063508  72.6648077  71.5648404  47.7722647
  72.6162246  72.7328740  49.6509952  73.0797018  73.4498494  50.1905850
  71.1570647  72.5543274  49.8412672  70.9877543  71.4938434  49.6539739
  70.6562576  73.0481338  51.1837178  71.1780084  72.4899528  51.9610498
  70.9021335  74.1089426  51.2297681  69.2562701  72.9175353  51.3732121
  68.9809857  72.0367170  51.1086223  70.3691603  73.2824894  48.7596020
  69.2889064  72.8889985  48.3669451  70.9526971  74.3722012  48.1692784
  71.9253303  74.5328676  48.3887892  70.3822501  75.1017185  46.9724937
  69.2991028  75.1628004  47.0860149  70.9711856  76.5223583  46.8267998
  72.0541235  76.4810664  46.7100671  70.3737609  77.1946343  45.5863729
  70.4738605  76.4572116  44.7893824  69.3371724  77.4929203  45.7455166
  70.9422647  78.1234178  45.5466936  70.5865803  77.3606468  48.0614998
  69.5106787  77.5347399  48.0984118  70.8868792  76.7993492  48.9464718
  71.3094501  78.7327291  48.1652267  72.3940431  78.6324595  48.1102993
  71.0481656  79.5328900  47.4739121  71.1473267  79.2343675  49.1197224
  70.5644665  74.1864321  45.7831267  69.5770860  74.0097417  45.0043648
  71.7183508  73.4802777  45.6640720  72.3322498  73.5597740  46.4632993
  71.9935609  72.4288776  44.6910688  71.9896390  72.8625437  43.6912366
  73.4464963  71.9055533  44.7596510  74.1727607  72.7164603  44.8165620
  73.5938772  71.3616701  45.6927768  73.9636364  70.9177105  43.5976838
  73.7381306  69.5466718  43.7167591  73.5570564  69.1253055  44.6948392
  73.9048255  68.6932730  42.5993227  73.7675786  67.6227204  42.6312519
  74.4175672  69.1996682  41.4033624  74.6896628  68.4727027  40.6524369
  74.8138106  70.5430904  41.2891839  75.3132464  71.0252075  40.4616901
  74.5108853  71.3786879  42.3839620  74.6409269  72.4470980  42.3069164
  71.0107767  71.2758790  44.6926120  70.3716350  70.9580283  43.6294131
  70.5824056  70.8027774  45.8998485  70.9920287  71.0834501  46.7781797
  69.4986093  69.7863236  46.0568849  69.7574483  68.9834609  45.3656744
  69.5996167  69.1836421  47.4705035  70.6202865  69.1817559  47.8550571
  68.9052531  69.8043978  48.0347602  69.1135475  67.7942767  47.4649842
  68.1673674  67.9107987  47.3572626  68.0615984  70.2769160  45.6846746
  67.0878528  69.6838138  46.1565414  67.9808904  71.2672595  44.8314103
  68.8411270  71.6226805  44.4380315  66.8020216  71.8517080  44.1494878
  66.0564945  71.0587666  44.0946227  66.3310385  72.9793842  45.0606778
  65.9980579  72.5251757  45.9932515  67.2618837  73.4987709  45.2882247
  65.2846298  74.0047432  44.5250643  65.1838014  74.8155209  45.2463417
  65.7411315  74.5654693  43.7086738  63.9052917  73.4281220  44.0986143
  63.8739708  72.3495779  43.5811623  62.8298693  74.1407727  44.1588596
  62.8037778  75.0168754  44.6597191  62.0054566  73.8210238  43.6730341
  67.1326545  72.3730178  42.7751938  66.4556803  72.0315106  41.8059580
  68.1606589  73.1944948  42.5434558  68.6993410  73.5094483  43.3387714
  68.5449523  73.8803910  41.2448046  67.6354416  74.3227699  40.8375390
  69.5548149  75.0768256  41.4926568  70.3867905  74.6429005  42.0483065
  69.9523068  75.2631647  40.4951194  68.9429947  76.3123469  42.2203602
  68.7160349  76.0364384  43.2501950  69.6689028  77.1255800  42.2007045
  67.7638987  76.8634006  41.4668713  66.7113908  77.1483539  42.0795366
  67.7820615  76.8354599  40.2042933  69.1264482  72.8728761  40.2202250
  68.7933332  72.9607979  39.0250475  69.8504523  71.9056899  40.7311564
  70.2500299  71.9224291  41.6589562  70.1933964  70.7365498  39.8720407
  70.3334005  71.0198712  38.8294095  71.5633474  70.1297901  40.2492621
  72.3319258  70.8956783  40.3476560  71.4805273  69.6712497  41.2344278
  72.2412056  69.2895630  39.2441269  72.0646797  67.8906689  39.2727420
  71.3836073  67.4059471  39.9565265  72.7363115  67.1354489  38.2836706
  72.6034195  66.0684382  38.1774025  73.5610307  67.7073521  37.3094416
  74.3290365  66.9945409  36.4066519  74.6939231  67.5302774  35.6978866
  73.6651482  69.1756479  37.1935199  74.1904322  69.6412119  36.3735005
  72.9991453  69.9205315  38.2461954  73.1194451  70.9933902  38.2949722
  69.0806079  69.7206571  39.8572483  68.9751413  69.0610383  38.8014274
  68.1470936  69.6870293  40.8798119  68.1522931  70.3747350  41.6189032
  66.9890333  68.7420740  40.7601845  67.3314430  67.7487768  40.4702876
  66.1961953  68.6030595  42.0579949  66.8236378  68.2540877  42.8780215
  65.8890093  69.5675372  42.4628820  64.9287420  67.6357662  42.0307969
  65.2006907  66.7543833  41.4486767  64.7732856  67.2641241  43.0436510
  63.6383671  68.2553841  41.5625904  63.6399124  69.3665621  41.0126402
  62.5184012  67.7131584  41.7917203  62.4912988  66.7703424  42.1505525
  61.6913636  68.2331581  41.5360502  66.0887776  69.1986168  39.5297369
  65.7567495  68.4239795  38.7296298  65.9200735  70.5259634  39.4616863
  66.1364888  71.0441486  40.3010358  65.3405084  71.2645533  38.3799432
  64.3489328  70.8586668  38.1788261  65.2675767  72.7050526  38.8397601
  66.2382012  73.0330922  39.2114525  64.9860407  73.2369281  37.9323094
  64.0756282  72.9559723  39.8524492  63.1697946  73.0313355  39.2508823
  63.9977107  72.0993692  40.5222865  64.1956633  74.2656239  40.5956647
  63.3177063  74.3682864  41.2329072  65.1019935  74.2497125  41.2023528
  64.3381177  75.4299043  39.6176868  64.9328521  75.1482409  38.7493587
  63.3444539  75.6561066  39.2273887  64.8915261  76.6809145  40.1191943
  65.8720846  76.7951826  40.3300232  64.6316685  77.4563781  39.5271924
  64.4643197  76.8844417  41.0113784  66.1064104  71.2014625  37.0391570
  65.4936167  71.0499690  35.9895615  67.4636009  71.2293924  37.0564683
  67.9648593  71.3847888  37.9200405  68.2568605  70.9716716  35.7936995
  67.9751923  71.6389400  34.9801143  69.7460746  71.1183198  35.9993317
  69.9449257  72.1720076  36.1945093  70.0150000  70.5730350  36.9053106
  70.6864531  70.4175036  34.9562004  71.0167085  70.7989965  33.6638337
  71.6552231  69.7858556  33.0573548  72.2804672  70.0199424  32.2090458
  71.7112676  68.7038968  33.8885427  72.2360005  67.8526009  33.7506093
  71.1433799  69.1282358  35.0906491  70.9361947  68.5153779  35.9559632
  67.9653938  69.5426319  35.2697616  67.7189763  69.4027790  34.1166820
  68.0535529  68.5386224  36.1469991  68.3608950  68.6148862  37.1060308
  67.6475170  67.1283000  35.7119295  68.1167517  66.8190466  34.7767385
  67.9503138  66.1087456  36.8505519  67.4171803  66.5069965  37.7140117
  67.5241064  64.6350263  36.6644641  67.8851120  64.3619238  35.6729385
  68.0445665  63.9875802  37.3679105  66.4590258  64.5000018  36.8552957
  69.5317590  66.1227294  37.1070229  69.9361677  67.1236404  37.2556530
  69.7309356  65.4613637  37.9499043  70.3272384  65.4570056  36.0093410
  70.1118517  64.3927890  35.9063628  70.1087480  65.9280020  35.0511363
  71.3871303  65.6204054  36.2023296  66.1791438  67.0807291  35.2900027
  65.8950189  66.4999845  34.2588806  65.2727181  67.7523889  35.9307933
  65.4633173  68.3551025  36.7178983  63.8101773  67.7369348  35.5603591
  63.5160501  66.6990867  35.7171724  63.0739449  68.5976338  36.6406499
  63.5192452  68.4518740  37.6237444  63.2082219  69.6639213  36.4515393
  61.5895093  68.3517065  36.5668160  61.2528210  68.7099503  35.5953396
  61.2951215  67.3312673  36.8166016  60.8491371  69.0577973  37.6636655
  61.1053388  68.7746760  38.6845029  61.1188584  70.1036497  37.5166647
  59.3437868  68.9605950  37.4169026  59.0627721  69.5610058  36.5518623
  59.2143618  67.8890535  37.2603807  58.6009793  69.4191974  38.5887088
  57.6138679  69.4750581  38.3760784  58.7706630  68.7635074  39.3377075
  58.9395312  70.3183833  38.9000838  63.5145420  68.1287875  34.1191689
  62.5818363  67.6405985  33.4901843  64.4367961  68.8848366  33.5381602
  65.1754270  69.1783576  34.1622123  64.3433063  69.4406721  32.1716686
  63.3157091  69.4416587  31.8050650  64.7714360  70.9306441  32.2292295
  65.8411032  71.0391515  32.4112059  64.4938713  71.3196347  31.2496877
  63.9020757  71.7454074  33.2991839  62.8816896  71.8230342  32.9267254
  63.8120911  71.2420686  34.2612893  64.6162054  73.0956780  33.6934859
  65.6717756  72.9129285  33.8994353  64.6426810  73.7555942  32.8260278
  63.9175056  73.7674019  34.8109346  63.0061336  73.3836115  35.0203722
  64.2440182  74.8947305  35.4406850  65.4383099  75.4645522  35.3879726
  66.1754169  74.8734478  35.0332292  65.7345566  76.3324459  35.8128731
  63.3350770  75.4576410  36.2214050  62.4061076  75.0603388  36.2107841
  63.4994643  76.3455328  36.6725767  65.1857874  68.7066363  31.1251363
  65.0891752  68.9610110  29.9242243  66.0333165  67.8155414  31.6176914
  65.8318119  67.4867115  32.5507979  67.0575554  67.0060686  30.9003070
  66.9541999  67.3504148  29.8703268  68.5510259  67.4471944  31.0744303
  69.2499106  66.8335268  30.5080954  68.8346434  68.9331967  30.8497831
  68.0075508  69.5674186  31.1668907  69.7799851  69.1526800  31.3447731
  68.9111399  69.0655061  29.7703390  68.7358533  67.2418022  32.4225931
  68.2372743  67.9183134  32.8845330  67.0198541  65.4908147  30.9062476
  67.8084432  64.7608250  30.2879773  66.1451154  64.9156184  31.7214540
  65.4945986  65.5605580  32.1469641  66.2091668  63.4952428  32.1313618
  67.2541147  63.2476240  32.3181501  65.4478556  63.2443321  33.4861486
  65.8070454  62.3139378  33.9265473  65.5734363  64.0270301  34.2341742
  63.9216816  63.1689450  33.3175679  63.0785664  64.2634608  33.2079416
  61.8757350  63.9001622  33.6644774  61.0662187  64.5425266  33.9783026
  61.9249820  62.5928380  33.8758425  61.2458759  62.0505014  34.3909804
  63.1942014  62.1081454  33.6697794  63.5938639  61.1671560  34.0148486
  65.7119588  62.5938196  30.9773664  66.2419540  61.5519828  30.7678473
  64.7421069  63.0784597  30.2394062  64.3066142  63.9426667  30.5298633
  64.0452220  62.2787387  29.2269305  63.6773553  61.4021094  29.7601903
  62.9112738  63.1085953  28.5808830  63.3847666  63.7306414  27.8205297
  62.2925040  62.3969885  28.0340552  62.3296388  63.6948862  29.2915959
  65.0166959  61.8694343  28.1226106  64.7194553  60.9156317  27.4290101
  66.2184547  62.4079909  28.0271461  66.5472853  63.1445756  28.6346973
  67.1548934  62.0374195  26.9190462  66.6445040  61.9629399  25.9584014
  68.1903915  63.1474128  26.8393122  68.5151105  63.2449365  27.8749732
  69.0817101  62.9223186  26.2538475  67.5094109  64.4388673  26.4168911
  67.2129856  64.3256923  25.3744845  66.5846860  64.6159191  26.9659973
  68.2516765  65.8300103  26.4776938  67.6112028  66.6669870  26.1961488
  68.6457882  65.9259839  27.4886923  69.4438981  65.8838488  25.5662339
  69.8888896  64.8971567  25.4392645  68.9791984  65.9723339  24.5842586
  70.3636177  67.0094036  25.8468319  71.2706388  66.8618610  25.4305895
  69.9949855  67.8303617  25.3884464  70.4489931  67.1924720  26.8364187
  67.8250586  60.7004631  27.1386901  68.5104897  60.2663187  26.2016769
  67.5990073  59.9915230  28.2800409  66.9358115  60.4313195  28.9016851
  68.3771974  58.8498044  28.7148913  69.1464679  58.4906241  28.0316502
  69.1016199  59.3189220  30.0445437  68.1886297  59.3936078  30.6362234
  69.7166532  58.4817695  30.3764846  69.8217745  60.6976131  30.0739609
  70.7788495  61.1718364  29.1810680  70.9991267  62.4949145  29.4798544
  71.6798559  63.1847452  29.0059943  70.3756974  62.7991444  30.6697154
  70.4808576  63.6673462  31.1765417  69.5589618  61.7266416  30.9774241
  68.8661341  61.6486165  31.8010107  67.5171397  57.6018439  28.9540233
  67.9077949  56.7183023  29.7035089  66.3832209  57.3820274  28.2603360
  66.1544075  58.1035341  27.5922623  65.4574542  56.1875446  28.4210241
  65.7267724  55.4379612  29.1656619  64.1025963  56.7456089  28.7718652
  63.7400002  57.4523593  28.0256287  63.3804223  55.9344024  28.6901110
  63.9913658  57.4665603  30.0466306  63.1297654  57.1689086  31.0729066
  62.4965164  56.3817801  31.0636686  63.0530064  58.2694306  31.8969360
  62.3821599  58.3244298  32.7423022  63.9921181  59.2036580  31.5484102
  64.4836873  58.7643636  30.3578283  65.1900724  59.2521999  29.7012388
  65.3652093  55.2922521  27.1983826  64.9158243  54.1761864  27.2660105
  65.7787868  55.8044176  26.0460019  65.9067757  56.8051209  25.9986982
  66.1499799  55.1039289  24.8455115  65.3221667  54.3961996  24.8185373
  66.1085783  56.0392891  23.5904552  65.1008782  56.4501314  23.5351914
  67.1789820  57.1287011  23.6593718  67.4766273  57.2910014  24.6949064
  68.1122779  56.8817094  23.1535776  66.7667878  58.0534978  23.2539473
  66.3409738  55.2949331  22.4229478  66.2146671  55.9437255  21.7279478
  67.4796493  54.3138998  24.8588940  68.5886069  54.6945101  25.2873865
  67.2920379  53.1337449  24.2255603  66.3488416  52.8741656  23.9728423
  68.3347616  52.1570136  23.9441403  68.6485307  51.8105672  24.9290900
  67.8519122  51.0164022  23.0627505  68.6963191  50.3890173  22.7782385
  67.2807729  50.4020765  23.7577849  67.0708075  51.6284453  22.0295329
  67.5631813  51.6248050  21.2058869  69.5325312  52.7328738  23.1795364
  70.6961251  52.3320633  23.4580277  69.3202560  53.6903958  22.3019865
  68.3689948  53.7932701  21.9769128  70.2980339  54.5305456  21.5511892
  70.9989847  53.9129531  20.9913602  69.5751990  55.4068352  20.4974914
  68.6208737  54.9435778  20.2505486  69.3595822  56.3482496  21.0046386
  70.3223693  55.8006205  19.2041853  69.9478356  56.7396702  18.7960147
  71.3779648  55.9361144  19.4341170  70.1041211  54.7595743  18.1312936
  70.0842601  53.5478624  18.4727025  69.8022290  55.1532128  16.9991983
  71.1746521  55.4221179  22.4908346  72.3648923  55.6898091  22.1985751
  70.6841991  55.8525611  23.5819609  69.7627759  55.5247436  23.8377343
  71.4731372  56.5038168  24.5448049  72.2888938  57.0087690  24.0276604
  70.5235395  57.4498886  25.3539412  69.9264429  58.1079739  24.7216752
  69.8762021  56.8444138  25.9879796  71.1525580  58.0563015  26.0069726
  72.0865057  55.4934803  25.5474779  73.2849332  55.6138052  25.8203504
  71.3253546  54.5524307  26.1020559  70.3521584  54.4165963  25.8649651
  71.8444713  53.6578507  27.1525412  72.3347506  54.2646727  27.9136663
  70.6430939  52.8866771  27.7584988  70.1051140  52.4017175  26.9440144
  70.9390795  51.7308928  28.7222612  70.0631297  51.0980334  28.8617994
  71.7391120  51.1411324  28.2761036  71.3132521  52.1791967  29.6428895
  69.6052451  53.8318542  28.5227247  70.0540820  54.1836028  29.4516178
  69.4397907  54.7194784  27.9113835  68.2242356  53.1948235  28.6588962
  67.4176401  53.8923521  28.8799562  68.0838068  52.8050312  27.6504599
  68.2561442  52.4049821  29.4094495  73.0261537  52.7570612  26.6586940
  73.9771990  52.5816974  27.3572649  73.0543441  52.2710180  25.3976943
  72.2049940  52.3945956  24.8669157  74.1670157  51.6020916  24.7905068
  74.5011140  50.7817572  25.4256239  73.7035476  50.8422581  23.4801945
  72.9823795  50.1126113  23.8486537  73.1979969  51.5555843  22.8308177
  74.8909689  50.2007726  22.6735366  74.5297514  49.6139837  21.8294071
  75.5362545  50.9626364  22.2364050  75.6895501  49.2687349  23.5936169
  75.1242183  48.5919857  24.5195183  76.8766104  49.0883009  23.2307624
  75.3441202  52.5387928  24.5837002  76.4725691  52.2843354  24.9788603
  75.0578171  53.8174206  24.1754571  74.0777325  53.9961513  24.0170447
  76.0850544  54.8089413  23.7429767  76.8518361  54.3175254  23.1436794
  75.4191047  55.7789596  22.8026146  74.7955027  55.1615350  22.1579741
  74.7607050  56.4978527  23.2904603  76.4046798  56.6095772  22.2451004
  76.0263408  56.8706365  21.4029855  76.7634715  55.4344559  24.9333542
  77.9238907  55.7400574  24.8392854  76.0721743  55.4924905  26.0737095
  75.0689156  55.3805212  26.0248757  76.6994684  55.8970489  27.3534504
  77.5200682  56.5940951  27.1849051  75.6937279  56.4504878  28.3411853
  75.0659569  55.5973120  28.5959317  76.2447646  56.8867558  29.1748698
  74.7856750  57.5693178  27.7497790  75.3055384  58.5046841  26.8106572
  76.3118961  58.4471642  26.4257863  74.5255561  59.6299274  26.4889411
  74.8446321  60.4244012  25.8306176  73.2596571  59.7161175  27.0705182
  72.4827581  60.8105403  26.9155222  71.8962421  60.9937709  27.6522281
  72.7793773  58.7092288  27.9966518  71.7480492  58.8323673  28.2911640
  73.5342051  57.5758767  28.2768890  73.2008206  56.7648833  28.9059658
  77.4513439  54.6584863  27.9007008  78.5088680  54.8517031  28.5251327
  77.0162945  53.4498497  27.7030381  76.0789032  53.2620845  27.3768283
  77.7883735  52.2572025  28.1732003  78.1983732  52.5397732  29.1444737
  76.9621528  51.0128152  28.2176036  76.0373649  51.1235548  28.7843647
  76.6059352  50.7653253  27.2173677  77.7024484  49.7992698  28.7176836
  78.1530662  48.8327655  27.8422552  78.0590365  48.9409046  26.7713335
  78.6445575  47.5587148  28.3082982  78.9420730  46.8446649  27.5527883
  78.8539455  47.4052831  29.6792400  79.4205157  46.2652576  30.1772421
  79.5427022  45.5664891  29.5298210  78.4256140  48.4314643  30.5728339
  78.7296181  48.3050842  31.6014235  77.8464226  49.5813243  30.0886155
  77.5235247  50.3219383  30.8039621  79.0748093  52.0528115  27.3096696
  80.1868903  52.1360297  27.8994480  79.0828668  52.1781675  25.9729363
  78.1579210  52.0700838  25.5798686  80.3396277  52.4397661  25.1458770
  81.0626815  51.6383547  25.2933860  80.0090434  52.5320560  23.6140684
  79.2512975  53.2872287  23.4037228  80.9556483  52.7762483  23.1312318
  79.4365629  51.2593916  23.0703549  78.5617372  50.9696691  23.6512566
  79.0991340  51.3011156  22.0354309  80.4813606  50.1505024  23.3276788
  81.6693423  50.3396379  23.1032567  80.0794659  48.9485428  23.5800253
  79.0886987  48.8107506  23.7137706  80.7190965  48.2535418  23.9368842
  81.1457795  53.7118752  25.6397968  82.3980216  53.6265214  25.5005112
  80.6473560  54.8437207  26.1475149  79.6477169  54.9051792  26.2731710
  81.4708224  55.9342493  26.6261469  82.3712269  56.0781882  26.0304841
  80.7110049  57.3395573  26.5947171  79.7347283  57.1014184  27.0177712
  81.2069100  58.0868515  27.2134662  80.7237975  57.8171547  25.1377442
  81.6887863  58.2851217  24.9446936  80.5651853  56.9865616  24.4513950
  79.5911309  58.8644114  24.9799667  79.5421770  59.1583588  23.9301265
  78.6465813  58.4505475  25.3331987  79.8572955  60.1474958  25.7296098
  80.6238219  60.1951149  26.3859746  79.1263768  61.2305356  25.6363005
  78.0660420  61.2178348  24.9193858  77.8506028  60.3381495  24.4741603
  77.3540678  61.9308832  24.8603031  79.4880016  62.4170177  26.0615637
  80.4514653  62.5668393  26.3266301  78.7625551  63.1188456  26.0176664
  82.0556681  55.6250941  28.0190829  83.0891414  56.1483948  28.4683259
  81.3461104  54.8172376  28.8028653  80.4056775  54.5157890  28.5899508
  81.8600957  54.3713918  30.1648909  82.1436965  55.2575730  30.7319556
  80.7590756  53.5983862  30.9155587  80.0188259  54.3636669  31.1487384
  80.3645337  52.7927861  30.2958466  81.2296565  52.8905479  32.2153908
  80.9983939  51.5154278  32.3224578  80.3713544  51.0192900  31.5956058
  81.5670715  50.8101554  33.3801092  81.4111820  49.7413345  33.3874935
  82.1375302  51.5165923  34.5048015  82.6114951  50.8365003  35.5649908
  82.9677004  49.9547907  35.4393251  82.2445951  52.9137528  34.4307973
  82.6574909  53.4312146  35.2837078  81.8867309  53.5916555  33.2355827
  82.0790800  54.6456465  33.1039214  83.0418190  53.4283064  29.9724488
  84.0752134  53.6458033  30.5973648  82.9676452  52.4619040  28.9988993
  82.1813121  52.4258082  28.3637691  84.0364248  51.5328959  28.7959432
  84.2599586  51.1041680  29.7735889  83.4836873  50.4213775  27.8882048
  83.1177985  50.9557879  27.0118374  84.3287020  49.7647189  27.6851340
  82.3996550  49.4828801  28.4655467  81.5918874  49.9933896  28.9893153
  81.8149178  48.7399388  27.2454367  80.9919461  48.0852393  27.5349659
  81.3085106  49.4780620  26.6234344  82.6661928  48.2396655  26.7862694
  82.9111278  48.4163121  29.4777212  83.0959802  49.0256283  30.3619364
  82.1833320  47.6750541  29.8090017  83.8187708  47.9283425  29.1205897
  85.2871322  52.2331379  28.2117632  86.3733792  51.7299850  28.4954983
  85.0940017  53.3230577  27.4525825  84.1983312  53.7352689  27.2362210
  86.2516025  54.1096146  26.9626464  86.9048575  53.3790095  26.4876599
  85.7315210  55.2409631  26.0400897  85.0455930  54.8756112  25.2751167
  85.1980972  55.9852281  26.6303623  86.9062598  55.9171337  25.3885054
  87.3291352  57.0401490  25.5967885  87.5866186  55.2217568  24.5431268
  88.3411108  55.6554607  24.0293532  87.1976521  54.3326229  24.2636631
  87.2031740  54.6943932  28.0501585  88.4257829  54.7587112  27.9623144
  86.5430913  55.0492114  29.1393848  85.5327957  55.0611389  29.1152706
  87.2202558  55.4199192  30.3804077  87.9756394  56.1918608  30.2364089
  86.4487144  55.8418139  31.0233530  87.7731109  54.2021334  31.1574085
  88.9255375  54.2437677  31.6050743  87.0156125  53.1255044  31.2907242
  86.0952033  53.1264741  30.8762379  87.3998534  51.9232246  32.1026505
  87.6467717  52.2813061  33.1017916  86.3040735  50.8498102  32.1230711
  85.9886576  50.6807732  31.0932656  86.6329286  49.4337141  32.6439098
  85.7354683  48.8373707  32.8130771  87.2613731  48.9367574  31.9052099
  87.0974624  49.4107160  33.6299390  85.1743324  51.3409957  32.9650687
  84.8183821  52.3190688  32.6414015  84.2756800  50.7247156  32.9510499
  85.5094072  51.4287635  33.9981648  88.7397808  51.3114473  31.6400687
  89.6921738  51.1309534  32.4193482  88.8528074  51.0228059  30.3173574
  88.0464832  51.0786035  29.7120427  90.0057346  50.4578872  29.6895812
  90.2562230  49.5298463  30.2041923  89.6660424  49.9695753  28.2224839
  88.6545742  49.5707805  28.2977216  89.6518803  51.0321226  27.1515564
  88.9618012  51.7709503  27.5600420  90.6177369  51.4871544  26.9316744
  89.2195061  50.4943097  26.3071562  90.4709678  48.7490504  27.7745115
  89.9514489  48.2085241  26.9819711  91.4844663  48.9858742  27.4548924
  90.6198678  48.0027013  28.5559594  91.2533126  51.3473907  29.7811432
  92.3337842  50.8884597  29.4472068  91.2315433  52.6556723  30.1558609
  90.3102392  53.0534748  30.2767949  92.3612419  53.5960316  30.1499952
  93.2903672  53.1106380  29.8503082  92.1945204  54.7103435  29.0748200
  91.2488150  55.2068264  29.2891657  93.0258329  55.4132369  29.1097545
  92.2141513  54.0318677  27.6604826  93.1104622  53.4184764  27.5755881
  91.3740171  53.3410103  27.5819669  92.1038227  54.9616124  26.5110792
  92.8617424  55.7442869  26.5376775  92.3372793  54.4080843  25.6002303
  90.7938991  55.6418092  26.5043247  89.9726868  54.9856011  26.2136785
  90.6392475  56.0829016  27.4884743  90.7048934  56.7667567  25.5469167
  89.8420486  57.2680507  25.7005007  91.4571826  57.3869231  25.8086564
  90.8792910  56.3190051  24.6580759  92.6806103  54.2204286  31.5250393
  93.8036682  54.5527095  31.8083063  91.6407947  54.2791692  32.3994540
  90.7758201  53.8078050  32.1748880  91.6029696  55.1395462  33.6122103
  92.6296705  55.2415108  33.9637392  91.1809560  56.6044708  33.2660004
  90.1264745  56.5779395  32.9890908  91.1817600  57.1430529  34.2130240
  91.8689907  57.3494465  32.1381704  91.7170129  56.9828281  30.9700044
  92.6371520  58.4141159  32.4131050  93.0285326  58.9095778  31.6241336
  92.6967778  58.7173859  33.3740993  90.7654676  54.5617941  34.7383714
  90.4090966  55.2186598  35.7092484  90.3647384  53.2825804  34.6599983
  90.6428725  52.7530706  33.8459793  89.4231914  52.5474854  35.5625776
  88.4472590  53.0140013  35.4304421  89.3184521  51.5048934  35.2630503
  89.7640124  52.5601248  37.0929551  89.0026913  51.9549027  37.8085328
  90.8720469  53.1354531  37.4593744  91.4169589  53.5730876  36.7297081
  91.0845354  53.5523146  38.8675051  90.4455464  52.8825046  39.4427108
  92.6066536  53.3899252  39.0554722  92.8251638  53.5402949  40.1120139
  92.9204805  52.3823908  38.7861987  93.0632296  54.2006392  38.4870153
  90.5085269  54.9315380  39.3577359  90.2978469  55.0662271  40.5723151
  90.1958389  55.8842244  38.5142285  90.3490122  55.7568594  37.5238396
  89.6571814  57.1919115  38.8850379  90.0248348  57.5541264  39.8447964
  90.2633450  58.1500791  37.8235952  90.1372100  59.1695864  38.1883539
  91.3273496  57.9589227  37.6900948  89.7809164  58.0869634  36.8480154
  88.1393001  57.2511155  38.7705815  87.5253819  56.2084582  38.4241309
  87.4899187  58.3876475  39.1164887  87.9954019  59.4048301  40.0288950
  88.4338156  60.1737969  39.3930638  88.7548697  58.9701931  40.6789222
  86.8296169  59.9879339  40.8471049  86.9969760  61.0359715  41.0945255
  86.7543528  59.4886723  41.8137585  85.6388180  59.6453206  39.9366215
  85.4190120  60.4987297  39.2948464  84.7288153  59.4852926  40.5137906
  86.0540291  58.4464561  39.0144904  85.6604797  57.5203202  39.4327393
  85.5972560  58.6264943  37.5334227  85.2887838  59.7284367  37.0074903
  85.7304909  57.5488623  36.7072660  86.0541609  56.6788568  37.1036132
  85.3261922  57.5370399  35.3389499  85.7590755  58.3860315  34.8095632
  85.7532841  56.1842075  34.7081155  85.3536148  55.3179542  35.2345246
  85.2791901  55.9560018  33.2689272  85.7859770  55.0332075  32.9842732
  84.2076274  55.7736152  33.2109842  85.6219938  56.7491417  32.6042621
  87.2741549  56.1321673  34.6494888  87.7022345  55.3899917  33.9752684
  87.6813291  56.9898515  34.1130675  87.7140800  56.0924694  35.6472453
  83.8143484  57.6039241  35.0824176  83.3502927  58.3187918  34.1518063
  82.9708196  56.9777445  35.8541886  83.3937473  56.5096726  36.6430243
  81.4569631  57.0877580  35.8212134  81.0637362  56.9795720  34.8099442
  80.9590083  55.8659050  36.6830668  81.7036879  55.0804922  36.5525374
  80.7614110  56.0304443  37.7425757  79.6593595  55.1982033  36.1746719
  79.8058777  54.6532034  35.2413957  79.3626358  54.0014693  37.1557774
  78.4509508  53.5104919  36.8137063  80.1322485  53.2313081  37.1353558
  79.1584009  54.4183406  38.1433661  78.4087592  56.0163790  36.0549417
  77.4695743  55.4848366  35.9015614  78.2445159  56.6024824  36.9599279
  78.6096143  56.7253006  35.2532807  80.9480302  58.4795201  36.3528887
  79.9368144  58.9631813  35.8083867  81.7699907  59.0489953  37.2010355
  82.4862891  58.4105451  37.5143276  81.5451082  60.4271340  37.7426514
  80.4562366  60.4666855  37.7005170  82.0629669  60.5247085  39.1524608
  81.5266767  59.7786353  39.7395780  83.1098068  60.2269378  39.1107251
  81.9904496  61.8526681  39.8404458  82.2484401  62.6096562  39.0999008
  80.6041086  62.1056409  40.2986646  79.9292133  62.1169090  39.4424523
  80.3455536  61.3032737  40.9900322  80.4909618  63.0729602  40.7884381
  82.9459789  61.9204725  41.0388949  83.9982850  61.7494540  40.8119728
  82.9568323  62.9151523  41.4827408  82.7069231  61.1947498  41.8161136
  82.0269624  61.4441783  36.6996402  81.4302107  62.4830199  36.5083169
  83.0656173  61.1931366  35.9266157  83.6351352  60.3764127  36.0968901
  83.4210682  62.0719803  34.8205427  83.4706663  63.1070799  35.1559631
  84.8288588  61.6840025  34.2208829  85.5253979  61.7079575  35.0585783
  84.7795666  60.6108410  34.0373217  85.5348594  62.4698075  33.0644840
  86.2896958  61.8245624  32.3139256  85.6434189  63.7418083  32.9676806
  82.4025984  62.0042525  33.6456626  82.0555536  63.0925350  33.1629339
  81.8629219  60.8492291  33.3729278  82.1970157  60.0238553  33.8474566
  80.7800921  60.6084364  32.4108865  81.0663466  61.0953436  31.4795237
  80.6676199  59.1116890  32.2277852  81.6749822  58.7737466  31.9852916
  80.4268621  58.6016997  33.1596719  79.6383509  58.7071658  31.0918573
  78.6142981  58.9572581  31.3679635  79.9341699  59.3285263  29.6818444
  79.7659610  60.4053795  29.7046057  80.9192430  59.1164286  29.2671959
  79.2018359  58.9726017  28.9568165  79.7001956  57.1935042  30.9560162
  78.8088333  56.9764845  30.3674412  80.5886627  56.9518476  30.3733006
  79.7386941  56.6500288  31.8990647  79.4153520  61.2115921  32.8045192
  78.6544415  61.7057019  32.0082254  79.1207982  61.1327053  34.1302314
  79.5296503  60.4470590  34.7478560  78.0441122  61.8712110  34.7599747
  77.0885302  61.4746239  34.4157773  77.9888468  61.7863216  36.3370075
  77.1922270  62.4343422  36.7001043  78.0088011  60.7642920  36.7181076
  78.9312922  62.2334185  36.6535972  78.1100417  63.4044187  34.3724023
  77.1903487  63.9359881  33.7684075  79.2201482  64.0850327  34.7463465
  79.9876457  63.6278662  35.2162267  79.3823082  65.5093731  34.3243269
  78.5486287  66.1749648  34.5493228  80.7460168  66.0688350  34.8901802
  81.6000970  65.4508616  34.6116557  80.8675493  66.9975448  34.3311507
  80.8130303  66.1892807  36.3990119  81.9357329  66.2679424  36.9039704
  79.7781996  65.8683929  37.1943737  79.9109989  65.8097569  38.1941592
  78.8583733  65.7625451  36.7873493  79.4016445  65.6871660  32.8161346
  78.7951161  66.6588322  32.3503739  80.0334989  64.8168164  32.0739638
  80.5311696  64.0602353  32.5211405  80.1663407  65.0742991  30.5739596
  80.6037224  66.0612924  30.4201329  81.0552981  64.0106791  29.8863928
  81.9861640  63.9003313  30.4413821  80.5244988  63.0735976  29.7180348
  81.3810849  64.4744597  28.4540306  80.4818236  64.5202664  27.8405383
  81.7858309  65.4871749  28.4405972  82.4615007  63.5277073  27.9074341
  82.3275580  62.9488967  26.7996599  83.5338270  63.4167390  28.6203270
  78.7707459  64.9688584  29.8199494  78.4049652  65.9259759  29.0906590
  77.8628577  64.0150092  30.1102937  78.0781921  63.2236028  30.6997460
  76.4902930  63.9976430  29.6066882  76.5502193  64.4089964  28.5994031
  75.9445408  62.5374038  29.5447789  76.1193852  62.1334575  30.5419237
  74.4232565  62.1708711  29.1800952  73.7003992  62.6311927  29.8555095
  74.2021617  62.5250378  28.1719102  74.2875748  61.1011156  29.3326683
  76.7889521  61.6734912  28.4569390  77.7325236  61.4020727  28.9280904
  76.3181229  60.8003486  28.0048463  76.9265066  62.2777481  27.5599767
  75.6183357  64.9263150  30.4941074  74.4334719  65.1705545  30.1502011
  76.2160592  65.5802448  31.5129854  77.2117040  65.4489246  31.6225089
  75.5690951  66.4487231  32.4675596  76.3527281  66.4390831  33.2252049
  75.5699626  67.8757314  31.9077734  76.5031226  68.1203226  31.3999353
  74.7541684  68.0502076  31.2073707  75.5171525  68.7964703  33.1263513
  75.8057084  70.0084958  33.0284296  75.2959141  68.3675296  34.3001390
  74.2815727  65.8522393  33.0897518  73.1806165  66.4834940  33.0925539
  74.3425346  64.5935677  33.4939814  75.2235014  64.1089689  33.5921827
  73.3678850  63.8555019  34.1970077  72.4418018  64.4034750  34.3727046
  72.9916557  62.7348463  33.2292415  72.7404896  63.0518755  32.2171164
  73.8473818  62.0824968  33.0588769  71.9026401  61.7314671  33.6807958
  72.1420322  60.3420248  33.7557994  73.0399110  59.8519564  33.4097248
  71.1041925  59.4264199  33.9795255  71.2971494  58.3755825  33.8317974
  69.8196199  59.9443694  34.2641714  68.8364716  59.0258232  34.3042886
  68.0988652  59.3818333  33.8041610  69.5650238  61.3698920  34.3773088
  68.5885661  61.7471623  34.6421681  70.6458017  62.2453149  34.0084183
  70.4653817  63.3002731  33.8596876  73.8665464  63.3193620  35.5189562
  75.0484078  63.0881263  35.7096540  72.8888413  63.1048899  36.4064884
  71.9143204  63.2387889  36.1794527  73.2361219  62.9176771  37.8053313
  73.7542610  63.8407191  38.0633086  71.9084689  63.0350197  38.5676457
  71.2856124  62.2247929  38.1899523  72.0221704  62.8592239  39.6373087
  71.4928377  63.9960389  38.2604817  74.0088810  61.6173295  38.1420575
  73.6805358  60.5339305  37.5931886  74.9937649  61.6192834  39.0455268
  75.5008401  62.8022270  39.7549338  74.8487926  63.0202032  40.6013500
  75.5911718  63.5340081  38.9534366  76.8699172  62.4422795  40.2690346
  77.0189751  62.8573323  41.2669138  77.5949484  62.7776080  39.5274292
  76.8384030  60.9381018  40.3459402  76.5660337  60.5882517  41.3418984
  77.7976726  60.4297082  40.2441428  75.7715382  60.4502550  39.2924969
  76.3978046  60.1822971  38.4408685  75.0596052  59.2348031  39.8680263
  75.2495000  58.1511551  39.3212054  74.1643825  59.3477972  40.7955017
  73.8541272  60.2550726  41.1112121  73.4831318  58.1261739  41.2805573
  74.2149314  57.3357951  41.4428580  72.6847916  58.3883563  42.5951266
  72.2862028  57.4585588  42.9995481  73.4096930  58.7089236  43.3431464
  71.6735996  59.3435402  42.4222323  72.2289869  60.1208910  42.3336340
  72.5112764  57.5653661  40.3346077  72.5209432  56.3498820  40.1557475
  71.6950745  58.3914624  39.6480996  71.8221589  59.3667666  39.8793403
  70.7678339  57.9941674  38.5749726  70.1177062  57.1960248  38.9336542
  70.0718050  59.2796716  38.1760280  70.8208636  60.0497555  37.9917237
  69.5599746  59.0436451  37.2434992  68.9545883  59.6593047  39.1599419
  69.3439513  59.9032131  40.1493357  68.1679053  60.9705678  38.7839604
  67.6026451  61.3812156  39.6222171  68.8311411  61.7740762  38.4624727
  67.4775834  60.7662502  37.9653628  67.8153424  58.7052046  39.3666707
  67.3569059  58.4044694  38.4248749  68.1525963  57.7580866  39.7879608
  67.1167086  59.1029017  40.1020549  71.5564245  57.2995285  37.4810939
  71.1159533  56.2503889  36.9706704  72.7505315  57.6916968  37.1454234
  72.9800933  58.6152370  37.4831999  73.6992002  57.2083928  36.0172289
  73.1127447  56.9730184  35.1290810  74.7544390  58.2370820  35.6285597
  74.1800349  59.1255348  35.3684627  75.2870643  58.4552798  36.5541812
  75.7257034  57.7445741  34.5720222  76.6533729  58.3175198  34.5413069
  76.0313470  56.7356428  34.8489346  75.2011452  57.7482005  32.7970122
  75.7433799  59.5196023  32.5368368  75.5230049  60.0676624  33.4526829
  76.7497364  59.4607243  32.1208668  75.2444802  59.9427451  31.6647868
  74.2759187  55.9086983  36.5186657  74.3426793  54.9026011  35.7278779
  74.6934125  55.7771864  37.7766453  74.5255230  56.4362986  38.5233267
  75.3445673  54.5697069  38.2473635  76.2783194  54.4940687  37.6889410
  75.7602807  54.7944182  39.7198910  76.3365096  53.9227082  40.0285508
  76.3218418  55.7063336  39.9198620  74.9189034  54.8202077  40.4131912
  74.4154733  53.3549631  38.0810173  74.8355179  52.2867648  37.6670210
  73.0918860  53.6168729  38.2856850  72.9386150  54.5667768  38.5950902
  71.9412018  52.7679224  38.1515433  72.0139581  51.7958195  38.6397568
  70.8081231  53.5368978  38.8958137  71.0909363  53.6804604  39.9376656
  70.6894150  54.5678612  38.5646826  69.4341587  52.8701805  38.7651386
  68.7496329  53.4163263  39.4139091  69.0634561  52.8663554  37.7406617
  69.4747242  51.5000768  39.3829867  70.1522740  50.8160528  38.8733598
  69.8346880  51.6594272  40.4006406  68.1699811  50.8229786  39.4223489
  67.6518675  50.8201909  40.2893325  67.4804317  50.2650917  38.4619834
  68.0201541  50.1117015  37.3047042  68.9516616  50.5043433  37.2789681
  67.5038867  49.8885918  36.4657621  66.3136248  49.8062561  38.7138733
  65.9604066  50.0078585  39.6391941  65.7895123  49.2853917  38.0241108
  71.5135355  52.4159142  36.7086914  70.8431407  51.3671180  36.6024214
  71.7741784  53.3399283  35.7669567  72.2304631  54.2053274  36.0147200
  71.5806518  53.1374053  34.3410090  70.6596422  52.5754057  34.1877682
  71.6331181  54.5140811  33.6679169  70.9017664  55.1591929  34.1539389
  72.6333236  54.9118731  33.8375855  71.3159652  54.6261072  32.1503589
  70.5364450  53.8878668  31.9583761  70.7729998  56.0130835  31.8703890
  69.9105856  56.3334949  32.4540699  71.5761902  56.7408191  31.9967184
  70.4878031  55.9509298  30.8199983  72.4447610  54.3919453  31.1320209
  72.7453654  53.3448522  31.1672490  72.1607154  54.7009717  30.1259702
  73.2791185  55.0750699  31.2856353  72.6363151  52.2110945  33.7332941
  72.4083606  51.2121932  33.0621108  73.8631775  52.5160048  34.1721294
  73.9715648  53.3160648  34.7788470  75.0906872  51.8202455  33.7766616
  74.9670424  51.6681964  32.7032758  76.3907485  52.6302076  34.0080008
  76.3292920  52.9068559  35.0613226  77.7062680  51.8017007  33.9156655
  77.6540765  50.9028075  34.5309160  77.9176602  51.5420096  32.8792183
  78.6028032  52.3340679  34.2360258  76.5834285  53.8944470  33.2136356
  75.7428375  54.5243636  33.5035355  77.3826798  54.4048584  33.7522315
  76.9073499  53.8528155  31.6913785  76.1186610  53.3271061  31.1534180
  76.8521493  54.8801208  31.3338765  77.8581270  53.3255487  31.6005666
  75.0743020  50.4763753  34.3879965  75.4723947  49.4430126  33.8304502
  74.7102684  50.3244284  35.6463532  74.4703297  51.1050416  36.2431299
  74.6645034  49.0024323  36.3237135  75.5834262  48.4482678  36.1305697
  74.3434526  49.1664856  37.7775040  75.2362202  49.6957735  38.1099607
  73.4883276  49.8338755  37.8845091  74.0294659  47.9137989  38.6553270
  73.1627798  47.3904262  38.2520624  75.2583215  47.0227086  38.6133178
  75.0545161  46.1586832  39.2471810  75.5739123  46.7215165  37.6138885
  76.1904567  47.4076245  39.0269344  73.7359028  48.2774037  40.1176379
  74.5749904  48.6907031  40.6792192  72.9043289  48.9805136  40.1234331
  73.3653782  47.4508742  40.7240820  73.5810317  48.0864436  35.7135441
  73.8504380  46.9481310  35.5175090  72.4173974  48.5817993  35.3513080
  72.1857092  49.5205852  35.6437093  71.3697490  47.7191339  34.7983602
  71.2522348  46.8172672  35.3970545  70.0356655  48.4945197  34.7292813
  69.6448452  48.7776422  35.7069618  70.2547274  49.4123805  34.1842268
  68.9446163  47.6136701  34.0901494  69.1907349  47.5391894  33.0309826
  69.1006601  46.6155516  34.4985608  67.4899839  48.0837126  34.3659292
  67.3563665  49.2385062  34.6907926  66.5651631  47.2841264  34.2058279
  71.9076475  47.1552018  33.4345644  71.8897292  45.9291066  33.1566161
  72.5176400  47.9925602  32.6161206  72.6495185  48.9535868  32.8976324
  72.9359066  47.7277620  31.2818733  72.1175699  47.2505443  30.7423110
  73.4136867  49.0715271  30.6908786  72.5535033  49.7323893  30.7987799
  74.1012339  49.5629427  31.3778368  73.9377350  49.1106533  29.2639966
  73.8624956  50.1625119  28.9856184  75.0055900  48.9238667  29.1528139
  73.2745610  48.1647049  28.2057811  72.9709668  47.2491840  28.7125364
  72.4092904  48.7023489  27.8159622  74.2607120  47.8169541  27.1874248
  74.1895005  48.1158786  26.2245089  75.2452936  46.9164853  27.2393103
  75.2565233  45.9406492  28.0828117  74.6688263  45.9273547  28.9045322
  75.9616158  45.2400412  27.8979684  76.0884384  46.7438105  26.2962110
  76.0384198  47.4269705  25.5523747  76.8748695  46.1277738  26.4444333
  74.0635229  46.6995148  31.3375962  74.1083680  45.7324147  30.5185783
  74.9829988  46.9004429  32.3414503  74.8712964  47.6900828  32.9612045
  75.9875334  45.8168917  32.6096312  76.5814007  45.6689059  31.7069441
  76.9484174  46.2372747  33.7596286  77.5551893  47.1335011  33.6329746
  76.3531976  46.5739489  34.6085767  77.7340320  45.0538797  34.2999348
  77.3530470  44.5395083  35.5845042  76.4036370  44.8764535  35.9727666
  78.1816209  43.5442509  36.1631863  77.8854688  43.1034629  37.1056872
  79.2221613  42.9791440  35.4129758  79.8186081  42.1341796  35.7225891
  79.5403608  43.4850962  34.1478768  80.3975162  43.1188126  33.6032099
  78.7818390  44.4866236  33.5817801  78.9855040  44.7907534  32.5657626
  75.3505404  44.4515546  32.9404415  75.8317473  43.4670519  32.2862220
  74.3541882  44.4227651  33.7942064  74.0617919  45.2927884  34.2161116
  73.6218626  43.1848719  34.0409647  74.4061097  42.5518498  34.4570745
  72.6456900  43.2459164  35.2411695  71.8768250  43.9276921  34.8775619
  72.1460571  42.2809751  35.3381500  73.2125150  43.7644950  36.5838458
  73.9801554  44.5377115  36.5406297  72.0357106  44.3793882  37.3984492
  71.5574749  45.1962603  36.8585079  71.2607154  43.6183497  37.4888523
  72.4110625  44.6623826  38.3814422  73.9204387  42.6657246  37.3857085
  73.1645695  42.0349706  37.8523616  74.6582062  42.0492981  36.8714554
  74.4996484  43.1308154  38.1821837  72.9438315  42.6053269  32.7579984
  72.9237335  41.3837092  32.5516894  72.6970045  43.4927512  31.8231554
  72.9458347  44.4724635  31.8285655  72.1033846  43.0579411  30.5332226
  71.4714720  42.2025039  30.7693214  71.2911350  44.1845473  29.9890948
  71.8732379  45.1036510  30.0427020  70.9530316  43.9623884  28.9765621
  69.9836582  44.2846892  30.7400048  69.3535230  43.4126478  30.5672673
  70.1335999  44.4979340  31.7983054  69.1156607  45.4857188  30.3317973
  69.4629081  46.3244412  29.5276780  67.9907797  45.7744168  30.9046868
  67.5288121  45.2069282  31.6019160  67.6926542  46.7201111  30.7161969
  73.0561180  42.4273354  29.5177653  72.6293045  41.9613592  28.4502540
  74.3503360  42.3362299  29.9082616  74.6380350  42.9047085  30.6916807
  75.3620467  41.5142457  29.2600113  74.9224790  40.7984873  28.5663116
  76.2425042  42.4480552  28.4836484  76.8562793  41.8807291  27.7833926
  75.6778737  43.0220543  27.7502267  77.1919338  43.3682347  29.2794011
  76.6103311  44.1426706  29.7806708  77.7117324  42.7966421  30.0495694
  78.1723058  44.0566870  28.3176011  79.4205070  44.0069432  28.4795987
  77.6480436  44.6473588  27.3554691  76.2471247  40.6406398  30.2057045
  77.2381142  40.0344028  29.7343094  75.8755504  40.5283862  31.5142269
  74.9874154  40.9646527  31.7186914  76.5891113  39.6854833  32.5422865
  77.4240843  39.2316824  32.0093523  77.1027547  40.6119933  33.6414865
  77.6842383  41.4792956  33.3332619  76.2125569  41.0045493  34.1341057
  77.9138944  39.6900185  34.5919316  77.3573636  38.8766594  35.5700372
  76.3964546  38.7747242  35.8645674  78.4198496  38.3401874  36.2413161
  78.4621115  37.6580112  37.0779741  79.5840891  38.7552405  35.7397233
  79.2899367  39.5934334  34.6879933  79.9768998  40.1202282  34.0426298
  75.7357880  38.4589024  33.1023586  76.1702281  37.2933836  33.0772845
  74.5746692  38.7898204  33.6432121  74.4412100  39.7847695  33.7509333
  73.6046222  37.8356446  34.2476013  74.1619540  37.1441427  34.8795596
  72.5747206  38.5002711  35.1679080  72.0846172  39.2108491  34.5009008
  71.9160701  37.7717008  35.6404362  73.3465432  39.3712740  36.2164974
  74.0360924  40.1331348  35.8539964  72.5815721  39.8986024  36.7863157
  74.0638054  38.4273168  37.1721185  73.4375530  37.7150900  37.9811438
  75.3320129  38.4900657  37.1304838  72.9194217  37.0006352  33.1623232
  72.6984911  37.5446549  32.0638842  72.5708099  35.7544121  33.4320669
  72.9589455  35.2035554  34.1847752  71.9590915  34.9678718  32.3803617
  72.5250302  34.9453506  31.4483379  71.9162634  33.5119871  32.9125351
  72.9401557  33.1964328  33.1105225  71.3956766  33.4962858  33.8701174
  71.2709265  32.5743086  31.9237347  71.5417281  32.8693291  30.9101058
  71.8495422  31.6586513  32.0395813  69.8167582  32.3319035  32.0374680
  69.2480796  31.5955145  31.2023232  69.0679104  32.8480302  32.9068185
  70.5505957  35.4015299  31.9842690  70.1771216  35.3106838  30.7945842
  69.8660865  35.9483659  32.9751411  70.2369592  35.8909907  33.9129953
  68.7042348  36.7593930  32.9360433  68.7365373  37.3082878  31.9946846
  67.3711722  35.9849042  32.9285646  67.2335533  35.5361077  33.9119566
  66.1488353  36.9098342  32.7137833  65.3081034  36.2936147  33.0304762
  66.1292014  37.7216149  33.4409301  66.0576597  37.1402449  31.6513169
  67.2363466  34.9573720  31.9730571  67.9295425  34.3090938  32.1111473
  68.7915664  37.7836483  34.1095476  69.2647039  37.3305337  35.1635234
  68.5416548  39.0447027  33.9259995  68.2696580  39.7017356  32.6784757
  67.2383419  39.6479910  32.3307579  68.9818792  39.2992805  31.9583474
  68.7472584  41.1831266  32.7898514  68.1912651  41.8254596  32.1085916
  69.8291256  41.1642061  32.6503728  68.3043480  41.3429645  34.2682689
  67.2187251  41.4397333  34.2450190  68.7426546  42.2748441  34.6276348
  68.7608775  40.0822222  34.9764721  69.8381612  40.1794644  35.1115753
  68.0216806  39.8299084  36.3264638  66.8532644  39.3407899  36.2694745
  68.5398972  40.0980013  37.5140945  69.8590831  40.6074127  37.8133495
  70.0447400  41.3067753  36.9979903  70.6915385  39.9059456  37.8434642
  69.6771589  41.4874159  39.1178295  69.0834096  42.3757601  38.9028518
  70.5708264  41.6776996  39.7121379  68.6865609  40.6021502  39.8894403
  68.2103874  41.2240131  40.6477610  69.3050875  39.7882646  40.2655110
  67.7740150  40.1132468  38.7932704  67.3878008  39.1024611  38.9354005
  66.6085571  41.1252955  38.6760038  66.6662785  42.1152250  37.9761968
  65.6988184  41.1235336  39.6944096  65.6952905  40.4989374  40.4878144
  64.5814241  42.0183964  39.6866983  64.1415689  41.9773118  38.6912153
  63.5162814  41.5101577  40.6379635  62.7488360  42.2801578  40.7207732
  63.0469490  40.6513122  40.1589756  63.9791713  41.3355888  42.0215547
  64.2725690  40.4223089  42.0177558  65.0312665  43.4791675  40.0022610
  66.0069189  43.7306936  40.8057627  64.2277980  44.4481559  39.5714493
  63.3227362  44.1868810  39.2058424  64.3753804  45.9336330  39.6943322
  65.2951681  46.2035498  39.1749704  63.1320481  46.5962003  39.1193579
  63.0261161  46.4586809  38.0431182  62.2527938  46.1221939  39.5548298
  62.9616411  48.0869984  39.3038558  63.1845805  48.3192641  40.3447629
  63.6435236  48.6697512  38.6847957  61.5668125  48.5485804  39.1592834
  61.4312979  48.2709176  38.1137954  60.9240706  47.9084107  39.7629386
  61.4204980  50.0276880  39.4660306  60.3897881  50.3552198  39.5957612
  61.9890782  50.3175209  40.3509009  61.8976195  50.8148040  38.3373014
  61.8771753  50.2743278  37.4854444  61.4985465  51.7246190  38.1556880
  62.8864919  50.9313591  38.5090580  64.6933518  46.3742923  41.1715500
  65.4792397  47.2964356  41.3810013  64.0119329  45.7825907  42.1922339
  63.2342230  45.1828635  41.9559700  64.2304584  46.0181094  43.6224634
  63.9519733  47.0692313  43.7068367  63.1684881  45.2808166  44.4374563
  63.4477553  45.2085631  45.4885716  62.2419368  45.8504156  44.3562853
  62.9594163  43.9672869  44.1397960  62.5829013  43.9353565  43.2560681
  65.6699513  45.6697138  43.9932877  66.2878093  46.4168067  44.7722381
  66.3648265  44.5924480  43.4052341  65.9506550  44.0874739  42.6349640
  67.7115439  44.1982482  43.6552292  67.8815269  44.3381589  44.7221012
  67.9658273  42.6664712  43.3734149  67.6514016  42.3902788  42.3676459
  69.4435411  42.3728810  43.4542158  70.0310220  43.1024945  42.8977840
  69.7566876  42.5033897  44.4896267  69.4639904  41.3391921  43.1104671
  67.1238627  41.8343166  44.4402008  67.1456937  42.1707662  45.4764059
  66.0856055  41.8509114  44.1103770  67.4754717  40.3691619  44.5112068
  66.6690446  39.8376706  45.0149113  67.5538077  40.0018597  43.4875992
  68.3495795  40.1962545  45.1393180  68.6725189  45.1754092  43.0074882
  69.5647851  45.6918498  43.6039538  68.3542091  45.6652462  41.7558842
  67.6428899  45.1288621  41.2800605  69.2309547  46.5860401  41.0300270
  70.2595781  46.2412127  41.1307688  68.8385669  46.7258486  39.5166931
  67.9024381  47.2666188  39.3712168  69.9047800  47.5376271  38.8129202
  69.6730315  47.6908814  37.7574621  70.0676976  48.4226285  39.4266664
  70.8292702  46.9598486  38.8463121  68.6756849  45.3464657  38.9163995
  69.5424966  44.7153239  39.1148294  67.8631560  44.7909408  39.3835643
  68.3850809  45.2360418  37.4437319  67.3096530  45.3594733  37.3185108
  68.9880843  45.8704127  36.7944782  68.6057775  44.2039237  37.1738314
  69.2205164  47.9508248  41.7630909  70.2457577  48.6089372  41.8366943
  68.0541601  48.2925566  42.4011278  67.2431885  47.6946079  42.4710020
  67.9554916  49.5071461  43.2494385  68.5169897  50.2660324  42.7060064
  66.4581886  49.9041837  43.4321673  65.9576479  48.9616586  43.6527062
  66.2040562  50.6005896  44.2315017  65.6117913  50.3218147  42.3305262
  66.1340471  50.8420105  41.3668955  64.3083542  50.2303513  42.3703293
  63.7648879  50.5062172  41.5654534  63.8663938  49.8281774  43.1850693
  68.7531000  49.2840974  44.5746491  69.5741398  50.1019632  44.9784005
  68.4919355  48.1366981  45.2711151  67.7965498  47.6118010  44.7613477
  69.1332565  47.6610500  46.5467495  68.9969454  48.4683103  47.2664134
  68.6163165  46.3028027  47.0276998  68.7591170  45.4816592  46.3238835
  69.0571168  45.9835103  47.9711681  67.3154622  46.6143579  47.3462471
  66.7737438  46.7745800  46.5703443  70.6907803  47.5576689  46.3456004
  71.4068846  47.9164994  47.2891899  71.2239885  47.1861280  45.1749850
  70.5892464  46.8679174  44.4564737  72.6683604  47.2036090  44.9142204
  73.2308340  46.6408476  45.6581808  73.0445638  46.6303655  43.5306765
  72.4170204  47.0961033  42.7694436  74.0228426  46.9689358  43.1898630
  72.9920869  45.1385397  43.3437886  73.9543558  44.7169943  43.6337404
  72.2127780  44.6751437  43.9486694  72.5190018  44.7368316  41.6340658
  72.9348888  42.9638028  41.5527206  72.3718276  42.3439363  42.2507620
  72.7373953  42.6175805  40.5384290  73.9983576  42.7579611  41.6662992
  73.2921724  48.5902974  44.9624568  74.3926384  48.7474060  45.5350216
  72.5149445  49.6469889  44.5765295  71.5679481  49.4872360  44.2628915
  72.6954315  51.0469515  44.7454293  73.7247301  51.1720264  44.4062513
  71.7919044  51.8342812  43.7824425  71.1199321  51.1487286  43.2679206
  71.1429916  52.4867152  44.3664400  72.5467639  52.5680319  42.6442958
  71.8157573  53.0432384  41.9895698  73.5111578  53.6286468  43.2485726
  74.3871673  53.1242878  43.6569061  73.6280296  54.3001057  42.3996427
  72.9907220  54.1662338  44.0403509  73.2627271  51.6267097  41.6847322
  72.6297156  50.8318358  41.2867862  73.6387164  52.2010130  40.8386194
  74.0949232  51.1675001  42.2181413  72.7761290  51.6415849  46.1733919
  72.9851409  52.8232706  46.3383489  72.6724384  50.7437207  47.1280945
  72.4579520  49.7864335  46.8918260  72.9240190  50.9492230  48.5798269
  73.3866576  51.9322705  48.6681397  71.5857011  50.8198312  49.4854919
  71.3682646  49.7596569  49.6146267  71.7803107  51.2182568  50.4810084
  70.3988720  51.6368649  48.8793966  70.6866641  52.4560373  48.2199316
  69.8777003  51.0035423  48.1637399  69.4365437  52.2890231  49.8146827
  69.0833355  51.6089674  50.5893009  69.9759377  53.0612565  50.3628858
  68.2957019  52.7931217  49.0511523  68.2549401  52.3438437  48.1485601
  67.3808722  53.5903697  49.5471949  67.4421523  54.0570070  50.7422520
  68.1646729  53.7413838  51.3732892  66.7248790  54.6993113  51.0462687
  66.2967485  53.8920618  48.8725672  66.1886931  53.8183296  47.8706827
  65.5855692  54.3961218  49.3823687  73.9272283  49.9633462  49.0844247
  74.4225166  50.1135608  50.2325080  74.3411689  49.0225283  48.2158507
  74.0047138  48.9058429  47.2711901  75.1387436  47.9053649  48.6332288
  75.8113779  48.3102227  49.3899819  74.2663335  46.8992173  49.3487933
  73.9097033  47.3347557  50.2816808  73.4246292  46.5620350  48.7432762
  75.0771108  45.6293310  49.6767599  74.6225874  44.5251598  49.5197145
  76.2841255  45.7994305  49.9634076  75.9666589  47.3811339  47.4347664
  75.6403712  46.4048338  46.7893855  77.0551567  48.0797449  47.0479043
  77.3900067  49.5081369  47.3623131  77.8853890  49.4655498  48.3318004
  76.5009638  50.1379134  47.3966833  78.2238221  49.9965324  46.2250696
  78.9794435  50.7448449  46.4682227  77.5495888  50.3101401  45.4290013
  78.9037259  48.6856190  45.8223688  79.7017198  48.3701136  46.4952960
  79.2799204  48.7037679  44.7996032  77.8246400  47.6694157  45.8504836
  77.2085492  47.7187034  44.9525756  78.4475412  46.2621525  46.0176674
  78.8999154  45.6861552  45.0406507  78.4936600  45.6775257  47.1983068
  78.1227605  46.1204185  48.0261120  79.0011363  44.3487024  47.3578577
  80.0549478  44.3384405  47.0795738  79.1304945  44.0652716  48.9091144
  79.7771548  43.1869418  48.9042896  79.4734230  44.9398012  49.4606079
  77.8973340  43.7194935  49.4291968  77.4026696  44.5191814  49.6220527
  78.2595454  43.2552551  46.6282816  78.8222724  42.1688517  46.3235342
  76.9918381  43.5125827  46.2580186  76.5337952  44.3310206  46.6334678
  76.1724438  42.6765847  45.4659162  76.3058181  41.6097087  45.6439161
  74.6825311  42.8245136  45.8029669  74.5995275  42.7560759  46.8868893
  74.4518513  43.8118149  45.4022015  73.5892689  41.9642652  45.0324817
  72.5910078  42.3440890  45.2475506  73.7526359  42.2567893  43.9945925
  73.6845027  40.4635705  45.1337967  73.9836522  39.8417908  46.1318953
  73.5513237  39.7451751  44.0457837  72.9646503  40.0353788  43.2766510
  73.8198107  38.7716941  44.0721394  76.4843746  42.6222739  43.9777833
  76.2628930  41.6432996  43.2082028  77.0602656  43.7268447  43.5417995
  77.3892029  44.3872009  44.2307522  77.5576773  43.8788852  42.1018848
  76.6621319  43.7018673  41.5087978  78.0680624  45.3196611  41.8770811
  78.8660189  45.5652469  42.5783385  78.6916368  45.5110056  40.4949000
  79.2787053  46.4246625  40.4040784  79.4395934  44.7269343  40.3736691
  77.9611439  45.4975251  39.6869103  76.8892568  46.3317658  42.0129386
  76.1181128  46.0382398  41.3012972  76.5403186  46.1667198  43.0323423
  77.2538790  47.8593562  41.9057037  77.5017968  48.0661969  40.8648965
  76.4011319  48.3711994  42.3515680  78.0944936  48.1645471  42.5286954
  78.6059363  42.8100246  41.6727469  79.6927153  42.7127874  42.2603738
  78.3457077  42.0965346  40.5170631  77.1181977  42.0188292  39.8258561
  76.7158531  42.8467704  39.2414400  76.4345097  41.8516767  40.6588649
  77.2375097  40.7473041  38.9538564  76.7324971  40.8772806  37.9963417
  76.7902901  39.9039211  39.4788829  78.7012203  40.4151635  38.8366251
  79.1391926  40.9251794  37.9792330  78.9450628  39.3529335  38.8261808
  79.2759798  41.0341959  40.1099610  79.4010584  40.3107412  40.9147838
  80.7238149  41.5576136  39.8024086  81.6027399  40.8800037  40.3489218
  80.8888803  42.7118423  39.0674157  80.0724481  43.2101716  38.7416606
  82.2044178  43.2913993  38.6909524  82.8859184  42.4438099  38.7652362
  82.1196363  43.7844675  37.2958176  82.1470319  42.9256382  36.6257425
  81.1792620  44.3166764  37.1532878  83.2389098  44.6611206  36.8753271
  84.4808654  44.4875310  37.1700998  83.0351108  45.5689051  36.0270234
  82.8107641  44.2901035  39.7323323  82.2480418  45.3470459  39.9698112
  83.9338061  43.9198154  40.3668979  84.3554803  43.0745743  40.0104989
  84.7437184  44.6905710  41.2897310  84.2696214  44.8395445  42.2585777
  85.6644542  44.1238983  41.4341524  85.2310665  46.1047303  40.8715834
  85.3526669  47.0379511  41.6758677  85.3529865  46.4455490  39.5844097
  85.0643304  45.7445790  38.9162647  85.6333463  47.8301151  39.0711934
  86.2741276  48.2952501  39.8193992  86.3100953  47.8460798  37.6958968
  85.7395768  47.2488259  36.9833939  86.5326813  49.2310528  37.1786778
  85.5892140  49.6466574  36.8266036  86.8274057  49.8695466  38.0107128
  87.3195945  49.1727788  36.4245136  87.7526556  47.0893385  37.7955728
  88.3629531  47.2184582  36.9017501  88.4537121  47.4765716  38.5352804
  87.5656231  46.0219300  37.9108418  84.2634190  48.5822738  39.0166998
  84.2130182  49.7565162  39.4195552  83.2080673  47.9997437  38.4934824
  83.3765363  47.0761826  38.1202879  81.8914829  48.6163523  38.4892155
  81.9583325  49.5739330  37.9746522  80.9045315  47.7936238  37.7440337
  81.2466676  47.6435283  36.7195805  80.9796954  46.7997267  38.1852875
  79.3907131  48.1839967  37.7559882  79.0863745  48.3209849  38.7934241
  79.0385391  49.4825225  36.9624309  79.7210082  50.2891630  37.2275744
  79.1567664  49.2990102  35.8936247  78.0022597  49.8143484  37.0205895
  78.6430374  47.1871957  37.0276265  79.1972939  46.9106953  36.1302313
  78.4055010  46.3452166  37.6796608  77.6898482  47.6109003  36.7142676
  81.5206067  48.8617038  39.9838965  81.1015192  49.9594001  40.3336126
  81.8004412  47.9284196  40.9640539  81.9032127  46.9677775  40.6674351
  81.4941728  48.2303575  42.3741369  80.4324864  48.4770635  42.3696451
  81.7853273  46.8438096  43.0826311  81.5693323  46.9761304  44.1428402
  81.0909179  46.0602257  42.7763193  82.8271785  46.6126461  42.8640916
  82.3551882  49.3895117  43.0010612  81.8307273  50.1505236  43.8219270
  83.5605755  49.6813775  42.5653299  83.9197049  49.0633874  41.8518943
  84.2751000  50.9154897  42.9593664  84.2289334  51.0580360  44.0394443
  85.7040681  50.7239651  42.5354412  85.6936475  50.4412677  41.4831582
  86.2828506  51.6475270  42.5469877  86.5022535  49.6666336  43.2626270
  86.4528634  49.5728084  44.4529007  87.2921564  48.9813849  42.5067721
  87.9739002  48.3214051  42.8509422  87.4431884  49.2933469  41.5564615
  83.7270741  52.1559415  42.2653652  83.5586746  53.1701412  42.9420702
  83.3205185  52.0158174  40.9852907  83.6532789  51.1925004  40.5054264
  82.9953693  53.1122281  40.0337043  83.6008987  54.0048185  40.1926834
  82.9599869  52.6636281  38.5638638  82.3520532  51.7621929  38.4931513
  82.4776281  53.4807122  38.0267431  84.3720717  52.4215501  38.1194130
  84.9896997  51.8972500  38.8489260  84.2177594  51.8451346  37.2064602
  85.2059023  53.7331264  37.8318438  84.8438941  54.9054293  37.9871047
  86.3962311  53.6133811  37.2610921  86.8308954  52.7010989  37.2417773
  86.9632655  54.4363135  37.1194404  81.5316354  53.6431699  40.4617813
  81.3374307  54.8554605  40.3736105  80.6593168  52.6985953  40.8452589
  80.8782141  51.7282435  40.6680659  79.3573230  52.9603524  41.3860512
  78.8936667  53.6499180  40.6784480  78.5436485  51.6962045  41.6463389
  79.2462772  50.9418373  42.0022505  77.2956395  51.7438393  42.6405750
  77.6600225  51.8546247  43.6619572  76.6527581  52.5509335  42.2918122
  76.7476334  50.8102946  42.5113248  77.9927865  51.1172385  40.2652366
  77.1529803  51.6974966  39.8832024  78.7329438  51.1288246  39.4647749
  77.6228966  50.1004882  40.4047325  79.5972968  53.6770429  42.6895102
  79.0492589  54.7859704  42.8942032  80.4460460  53.1958773  43.5916047
  81.0112979  52.3827919  43.3916136  80.6407835  53.8837079  44.8892515
  79.7017100  53.8990511  45.4426542  81.4972440  53.0108106  45.7611509
  80.8171808  52.1638088  45.8471685  82.4641057  52.7052315  45.3595243
  81.6602341  53.5956949  47.1775420  82.8399108  54.2558467  47.5753036
  83.6198343  54.3195638  46.8322440  83.0348689  54.6613021  48.9420026
  83.9027412  55.1467175  49.3622627  81.9383298  54.4709036  49.8585857
  81.9753704  54.9321276  51.1373873  81.2425200  54.5830001  51.6484315
  80.7333374  53.8560254  49.3821257  79.9225284  53.7558464  50.0880959
  80.6211458  53.3394155  48.1103760  79.7505857  52.7867712  47.7922828
  81.2312746  55.3806703  44.7815765  80.8436728  56.2208561  45.5735447
  81.9663254  55.7293968  43.7600530  82.1672645  54.9831268  43.1118412
  82.3705629  57.1329103  43.4803840  82.7893400  57.5282365  44.4063786
  83.3718934  57.1349727  42.2859757  82.7884652  56.6725474  41.4884518
  83.5170582  58.1507989  41.9190952  84.7654086  56.5430452  42.3295809
  84.7700966  55.4738527  42.5387491  85.3015214  56.7074923  41.3948605
  85.6633053  57.1713972  43.4147746  85.4382571  58.2892917  43.8753724
  86.7578015  56.6026486  43.8218593  87.0496350  55.7919902  43.2946902
  87.3643174  57.0418222  44.4988830  81.1607892  58.0382623  43.0890244
  81.1987888  59.1304059  43.5836631  80.1323097  57.5047430  42.4964613
  80.2002366  56.5773544  42.1003184  78.8524541  58.2182159  42.2244832
  79.1075173  59.2052008  41.8371207  78.1280618  57.5410558  41.0601254
  78.1909335  56.4566909  41.1502076  77.0865930  57.8656115  41.0672819
  78.8056358  57.9618584  39.4212597  77.8264663  57.2164425  38.9003929
  77.9968382  58.4046940  43.4978898  77.5822757  59.5307288  43.8251458
  77.8131172  57.3070449  44.2495773  78.3921064  56.5095940  44.0245294
  77.0279720  57.2714029  45.5303008  76.0050602  57.4695106  45.2110397
  77.0087281  55.8347219  46.2004490  78.0440678  55.5605102  46.3992995
  76.1109777  55.9979533  47.4650650  76.3014087  55.1369574  48.1055970
  76.3873431  56.8163401  48.1301734  75.0837637  56.2651112  47.2194148
  76.3461616  54.7565065  45.2746686  75.3274016  55.1222296  45.1463573
  76.8946467  54.6835121  44.3351066  76.4569420  53.3925377  45.9117320
  75.8547031  53.4087158  46.8191782  76.0756547  52.5235579  45.3760754
  77.4489879  53.1787633  46.3086582  77.4369244  58.3042057  46.5159860
  76.6575368  59.1984725  46.8272671  78.7275197  58.3624750  46.9307324
  79.4182485  57.6730328  46.6680366  79.1515156  59.3107319  47.9490164
  78.4635231  59.2787667  48.7939362  80.5758960  59.0088530  48.4807406
  80.7514204  59.6805991  49.3218109  80.5906646  57.5718663  48.9322451
  81.3412283  57.4916352  49.7188269  79.7212711  57.2704971  49.5169993
  80.7115697  56.8622244  48.1135898  81.7356578  59.1530276  47.4069086
  81.4970279  58.6506236  46.4700836  82.0451475  60.1846939  47.2393353
  82.6032430  58.6845758  47.8707821  79.1951244  60.7650681  47.5003533
  79.3320948  61.6485783  48.3662949  79.0393177  61.0511569  46.2119472
  78.7083420  60.3380645  45.5792860  79.1850622  62.3680650  45.5552558
  79.5826674  63.0701602  46.2886224  80.2133702  62.2385585  44.3927981
  80.0805801  61.2955141  43.8621984  79.9663108  63.1563366  43.8573804
  81.6758068  62.3331370  44.8837034  82.0688696  63.4171790  45.3417030
  82.4689721  61.3086429  44.7962816  83.2614217  61.3156751  45.4216193
  82.1289839  60.4413996  44.4059535  77.8148145  63.0227852  45.2076774
  77.6571008  64.2193356  45.2655020  76.7634712  62.2336438  44.7944814
  76.8944714  61.2405715  44.6642340  75.4328977  62.8264927  44.4790574
  75.7889514  63.6887072  43.9147224  74.7549620  61.7989532  43.5589107
  75.4275764  61.4948280  42.7578965  74.5253935  60.8694905  44.0795519
  73.4574860  62.2514873  42.8624311  72.9673754  61.5132539  41.9830859
  72.9850468  63.3382742  43.1863870  74.5535361  63.3040276  45.6618434
  73.6361711  62.6679884  46.2306981  74.7711285  64.5801619  45.9751238
  75.5311099  65.0277810  45.4832189  74.1598875  65.4822013  46.9361413
  74.0417696  64.9401661  47.8749208  75.0817285  66.7304558  47.0556857
  74.5902534  67.4739861  47.6832244  76.0137424  66.3874285  47.5057516
  75.5805124  67.2116407  45.3998171  76.3648557  68.2405645  45.7333553
  72.7132685  65.9120605  46.6274854  72.1533373  66.7169151  47.4268877
  72.1440068  65.4020861  45.5167229  72.7028953  64.8207850  44.9092365
  70.7948260  65.6563826  45.1499075  70.3108370  66.3543375  45.8336498
  70.7739929  66.3183541  43.7837945  71.2889905  67.2794369  43.7744442
  71.1961927  65.6827084  43.0054020  69.0441058  66.7959992  43.3524491
  68.6665172  65.5319855  43.1404815  69.9168064  64.3543428  45.1693698
  68.7395959  64.4211375  45.4307202  70.4611681  63.1669553  44.8868467
  71.4183364  63.1397242  44.5632292  69.6745356  61.9587183  44.7485071
  68.6670835  62.1508414  45.1156352  69.5950253  61.5672200  43.2513511
  70.6346415  61.4364999  42.9528608  68.9941095  60.6761555  43.0681566
  68.9028590  62.5777904  42.3869708  67.5108960  62.5733277  42.2316226
  66.9117738  61.8899868  42.8161316  66.8665608  63.5306662  41.4057072
  65.8077802  63.5078332  41.1917249  67.6288144  64.4656431  40.7149276
  67.0820726  65.3077763  39.8272525  66.1279890  65.2363645  39.7533010
  68.9885708  64.5012847  40.8988521  69.5455027  65.2914523  40.4180111
  69.6405678  63.5116682  41.6433769  70.7153003  63.3936115  41.6420254
  70.2627064  60.7401186  45.4633859  69.5937807  59.7111440  45.5722693
  71.5539930  60.7368696  45.8334218  71.9910222  61.6446260  45.7733149
  72.3565192  59.5996490  46.3591705  72.4471702  58.8319969  45.5910574
  73.3654039  59.8526305  46.6846519  71.6896417  59.0469025  47.6463596
  71.5449766  59.8441804  48.6155020  71.2168991  57.7727888  47.7342665
  71.2945856  56.8075994  46.6592724  72.2637162  56.3177455  46.7470563
  71.2848324  57.2789672  45.6757368  70.1419383  55.9169516  46.8742603
  70.2720008  54.9314202  46.4265365  69.2370854  56.3901623  46.4913403
  69.9689729  55.7972961  48.3605626  70.7086567  55.0201385  48.5543123
  68.9346439  55.5577485  48.6130649  70.4522654  57.1635690  48.8115402
  69.5560089  57.7484896  49.0174240  71.1594202  57.1602938  50.1847799
  70.6291173  57.5533139  51.1789861  72.5416589  56.9985066  50.1912743
  72.9265989  56.4616173  49.4275747  73.3228271  57.1225597  51.4702670
  72.8656838  56.4182080  52.1663982  74.7462728  56.6763329  51.0524477
  74.7269154  55.6337416  50.7327235  75.0846144  57.2326394  50.1785364
  75.8205269  56.7594358  52.1297383  75.8816602  57.7567835  52.5621470
  75.6769292  55.6269201  53.1596747  76.4681271  55.7403749  53.9003365
  74.6992103  55.6719572  53.6398189  75.7943635  54.6610044  52.6686178
  77.1836833  56.5130938  51.4517071  77.1126100  55.5343101  50.9767828
  77.2906633  57.3227060  50.7286136  78.0130266  56.4822248  52.1565140
  73.2407232  58.4808251  52.0526174  73.1024566  58.6370014  53.2622361
  73.1671279  59.5814739  51.2518047  73.0318328  59.3976983  50.2676529
  72.9969280  60.9475254  51.6714669  73.6149904  61.0522216  52.5628117
  73.5615505  61.9238389  50.5791362  72.8249766  61.9767584  49.7774758
  73.5018139  63.3754612  51.1676667  73.8291575  64.1407730  50.4629944
  72.4769761  63.6228154  51.4428314  74.2083421  63.5525437  51.9786745
  75.0278759  61.7703814  50.0006170  75.0855548  60.9487919  49.2862123
  75.4622961  62.6417256  49.5132779  75.6474069  61.5338825  50.8665700
  71.5514071  61.3333924  52.0952347  71.3775239  62.1167310  53.0177509
  70.5345502  60.6139936  51.5556123  70.6775061  59.8364237  50.9256831
  69.1459009  60.9075575  52.0442782  68.9592053  61.9784320  51.9660122
  68.0880983  60.0951705  51.3472021  68.5334780  59.1224510  51.1378517
  67.2025552  59.9665555  51.9687555  67.6976103  60.6565925  50.0176821
  68.3769496  61.6159816  49.5098321  66.6737105  60.2089706  49.4104674
  69.0164955  60.6304233  53.5444008  68.3743882  61.3787298  54.3027376
  69.6797517  59.6209519  54.0282092  69.9440828  58.9381063  53.3338800
  69.7514994  59.1150549  55.4460275  68.7286342  58.9856405  55.7988356
  70.5648432  57.8357692  55.4232049  71.5889933  57.9109178  55.0550809
  70.5436731  57.4084170  56.4255920  69.8608290  56.4964758  54.4373133
  70.6081311  56.8921491  53.4028709  70.4666589  60.0919258  56.4538216
  70.1669410  60.1008817  57.6526402  71.2615193  61.0396674  55.9217803
  71.3100474  61.0155115  54.9128371  72.0919168  62.1010293  56.5272519
  72.4390075  61.8506883  57.5299335  73.4081868  62.3876347  55.8009017
  73.1286634  62.5504371  54.7606883  74.0139997  63.7161971  56.2849045
  74.9954121  63.9221892  55.8586557  73.3624490  64.5586159  56.0541206
  74.1053945  63.5449608  57.3567166  74.4127807  61.1431913  55.8582565
  74.6838879  61.1276501  56.9137447  73.8000705  60.2743255  55.6139628
  75.6078879  61.2838908  54.9976675  75.9314903  60.3416338  54.5527087
  75.4053280  62.0550364  54.2557511  76.3853064  61.6459594  55.6704303
  71.1983652  63.3027957  56.5269347  71.1096221  63.9004235  57.6094903
  70.3303785  63.5882724  55.5281098  70.4920661  63.1083147  54.6543096
  69.3548057  64.6393580  55.5596174  69.9529506  65.5130073  55.8212595
  68.6915914  64.7827501  54.2074608  68.3106059  63.7857849  53.9832213
  67.9124373  65.5450278  54.2014096  69.6286191  65.3065537  53.0883139
  70.0341236  66.2773929  53.3744666  70.4569548  64.6086199  52.9713893
  68.8780766  65.3227937  51.7900102  68.7577843  64.2916832  51.4573125
  67.9622667  65.9110371  51.7635568  69.8308605  65.9460295  50.7286126
  69.8679069  67.0293854  50.8481261  70.8878029  65.6806637  50.7467172
  69.4632685  65.6478361  49.3372683  68.4675657  65.4951457  49.2699224
  69.8437071  66.3254032  48.6937581  69.7443072  64.7111957  49.0835183
  68.2792304  64.5062461  56.6681087  68.0399920  65.3895171  57.5010524
  67.8339290  63.2798850  56.7822580  68.1603355  62.6471470  56.0657056
  66.9938326  62.8704343  57.9022599  66.1544760  63.5640867  57.9324884
  66.4387755  61.4624213  57.6739179  65.8558174  61.3745577  56.7585241
  67.2940269  60.7909149  57.5978974  65.5635517  60.9431684  58.8525760
  64.1502475  60.9994131  59.0546521  63.9192178  60.3509802  60.2058051
  63.0352774  60.3482788  60.8262655  65.0815799  59.9921433  60.7551722
  65.1923778  59.5216318  61.6424257  66.1419948  60.3102059  59.9307679
  67.1790545  60.0965759  60.1431792  67.5518293  63.0854590  59.3385155
  66.9812298  63.7257147  60.2144646  68.7851261  62.5291861  59.5107668
  69.2411626  62.0857113  58.7252034  69.5848787  62.6760841  60.7396922
  69.1154434  62.0706149  61.5153670  70.9991409  62.0844449  60.6090347
  71.5667994  62.6887234  59.9015128  71.4793592  61.9652838  61.5812554
  70.8649480  61.1228992  60.1142922  69.7083569  64.1615372  61.1949980
  69.4719319  64.4727839  62.3764017  70.0012132  65.0272348  60.2558085
  70.2356259  64.6738732  59.3387593  70.3316540  66.3947386  60.5247398
  70.8530279  66.4178415  61.4822577  71.0458042  66.9927976  59.2798479
  70.8348353  66.3406226  58.4337121  70.6660346  68.4761297  58.9468523
  71.2876034  68.9073490  58.1623811  69.6155738  68.5474379  58.6688214
  70.6703509  69.1606219  59.7948008  72.5754975  67.0156836  59.5344532
  73.2021930  67.5940278  58.8563257  72.7761025  67.4806237  60.5004083
  73.1606696  65.6419878  59.6450264  74.2426261  65.6143639  59.7729449
  72.7450253  65.0124648  60.4330680  72.9308281  65.0067178  58.7909504
  68.9921092  67.1346211  60.8279292  68.9230710  68.1962501  61.4591174
  67.8615775  66.6546088  60.2030651  67.9877085  65.7851249  59.7047101
  66.4680156  67.1975179  60.3020545  66.3703228  68.2713650  60.1441352
  65.7616756  66.7726857  59.5900668  65.9595681  66.8713427  61.7414060
  65.5068311  67.8199239  62.4062608  66.0714838  65.6385222  62.1618042
  66.4202197  64.9393117  61.5211780  65.8156163  65.2126586  63.5084541
  64.7852143  65.4527751  63.7742563  65.8214245  63.6756440  63.5892037
  65.1085586  63.2092168  62.9112201  66.8482362  63.4818164  63.2809934
  65.5805472  63.1605302  64.9662462  64.3624862  63.0980705  65.7203942
  64.6221226  62.4849597  66.8632324  63.9328240  62.3990775  67.6907955
  65.8986059  62.0640424  66.8033915  66.4237511  61.5963610  67.5281851
  66.5114370  62.4752660  65.6733211  67.4963492  62.2824105  65.2729453
  66.7459269  65.9250319  64.5070813  66.3197361  66.1342332  65.6527546
  68.0254831  66.2680226  64.1794714  68.3862606  65.9950602  63.2769454
  69.0190458  66.9307584  65.0530574  69.0929788  66.4087046  66.0062304
  70.3959098  66.9776991  64.4283302  70.6113101  65.9119059  64.3563689
  70.3616004  67.3846093  63.4169342  71.4405137  67.7752491  65.1827444
  71.0617341  68.7917018  65.2954209  71.4859662  67.3981774  66.2032232
  72.8139816  67.8670731  64.5131623  73.7220036  68.2254627  65.2948618
  72.9784501  67.7749387  63.2483974  68.4444612  68.3161359  65.4254277
  68.3237514  68.5628328  66.6056903  68.1145325  69.2192369  64.4537288
  68.3114461  68.9527299  63.5001545  67.4498015  70.4785566  64.7548527
  68.0745915  71.1112713  65.3858992  67.3003603  71.3234529  63.4450999
  66.7604878  70.7848992  62.6669761  66.7150659  72.1745541  63.7965871
  68.6208051  71.8017902  62.8745941  69.4291197  70.9917041  62.0554096
  69.2033124  70.0917711  61.6585941  70.4975397  71.7081710  61.7098277
  71.1474419  71.6336442  60.8494946  70.5400901  72.8903784  62.4007641
  69.3536096  72.9267134  63.1121070  69.1859663  73.7077234  63.8386420
  66.1212388  70.3587214  65.4939538  65.7803317  71.2532959  66.3564733
  65.3167343  69.3455778  65.2396653  65.6122213  68.6236159  64.5980733
  63.9687241  69.2035484  65.8747174  63.3334492  70.0748704  65.7119974
  63.0329663  68.2301553  65.1490389  63.6266274  67.3343360  64.9620488
  62.2400418  67.8621060  65.8002405  62.5035298  68.7089956  63.7995286
  62.4939998  69.7939461  63.9054370  63.2645416  68.4911167  63.0499875
  61.0678187  68.1834593  63.4626855  60.2978415  68.8263362  62.7224380
  60.5999103  67.1607542  63.9975369  64.0420286  68.7753321  67.3616536
  63.2713955  69.2787366  68.2128783  65.0304787  67.9331706  67.7473688
  65.4361913  67.4235819  66.9761738  65.5183463  67.6319181  69.1280661
  64.6307606  67.6349104  69.7604970  66.1054056  66.2205348  69.3307376
  66.9968295  66.1749449  68.7042826  66.3539030  65.9426763  70.7983356
  67.2635055  66.4887451  71.0456512  65.5213621  66.3318769  71.3832881
  66.5532539  64.8807692  70.9419347  65.1562360  65.0769270  68.8595411
  64.2867386  65.0265286  69.5142711  64.7754336  65.1122661  67.8379205
  65.6196444  64.0913592  68.9083145  66.2766143  68.8505267  69.6995995
  66.2383939  69.0546447  70.9795343  66.8482239  69.7194570  68.8755019
  66.7568106  69.6311292  67.8735145  67.4274083  70.9810567  69.4489917
  68.0544723  70.7312169  70.3060412  68.3009119  71.5766488  68.3301532
  68.8618783  70.7126265  67.9759835  67.7284951  71.9486989  67.4799840
  69.2694038  72.7134252  68.6776566  68.7403929  73.4194789  69.3180234
  70.4576037  72.1385084  69.4292288  71.0434275  72.9777130  69.8045008
  70.0675003  71.5636364  70.2696433  70.9773085  71.4835031  68.7310047
  69.6821162  73.4813688  67.4608259  68.7817897  73.7268253  66.8984886
  70.0538418  74.4751947  67.7114736  70.4027368  72.9826065  66.8130396
  66.3833485  72.0098529  69.9815859  66.7064398  72.8126848  70.8473451
  65.2634068  72.0409159  69.2380674  65.2305603  71.3976020  68.4598352
  64.1962605  73.0079648  69.4405520  64.7162743  73.9653764  69.4026472
  63.0068043  72.8777400  68.4465800  62.6472070  71.8530220  68.3585071
  62.1877150  73.3250411  69.0106664  63.1850987  73.4432789  67.0356010
  63.8688621  72.8666220  66.4124722  61.8774201  73.1919709  66.2342253
  61.7437658  72.1118056  66.1795943  61.0461778  73.6271206  66.7896143
  61.8173606  73.6671933  65.2559255  63.4539220  74.9850961  67.1038630
  63.4659086  75.4554860  66.1209802  62.5750099  75.4031314  67.5958194
  64.3835639  75.2502736  67.6065049  63.6588347  72.9374156  70.8966853
  63.2268556  73.9835711  71.4866978  63.6626769  71.7503594  71.5258028
  64.1299233  71.0128849  71.0187435  63.2953323  71.3728551  72.9012146
  62.2287007  71.5607715  73.0208369  63.4461906  69.8051422  73.0013058
  62.6435719  69.4040882  72.3832703  64.4258707  69.4231513  72.7124395
  63.2213150  69.3906159  74.4771414  63.9166507  69.9659868  75.0886949
  62.1729709  69.5291680  74.7410126  63.5506526  67.8643638  74.5978272
  63.1587559  67.4604687  75.5319684  63.0837395  67.3558827  73.7542698
  65.0350449  67.6700099  74.5788257  65.6554905  68.4638493  74.6461329
  65.7378067  66.6090414  74.3637683  65.3015903  65.4244443  74.2118740
  64.3505682  65.1102832  74.0798066  66.0542643  64.7681558  74.0560268
  67.0274469  66.7250528  74.3054979  67.5465915  67.5910483  74.3143192
  67.5439929  65.8849223  74.0877503  64.1581612  72.1769862  73.8581197
  63.6715689  73.0167400  74.5713625  65.4636300  72.0910527  73.6825218
  65.6869534  71.4901791  72.9018794  66.4238853  72.6385134  74.6164177
  66.2782274  72.4081218  75.6723331  67.7515667  71.9684374  74.3686387
  68.1332312  72.1690891  73.3681618  68.3459985  72.3482119  75.1998043
  67.6986516  70.4616162  74.3914148  66.7640730  69.8388949  74.9422605
  68.5268038  69.8614741  73.6779848  66.4826654  74.1771789  74.3878078
  66.8182365  74.9758935  75.2806281  66.1570460  74.6240408  73.2003654
  65.9149750  73.9821188  72.4586735  66.1380352  76.0044708  72.7671190
  67.0778275  76.3865697  73.1666136  66.2023757  76.1724769  71.2084506
  65.5303442  75.3905458  70.8563731  65.7522074  77.1304384  70.9485289
  67.5972358  76.0346681  70.5547793  68.0854970  75.1860947  71.0319870
  67.5990115  75.8949160  69.0224464  67.1606966  74.9542832  68.6885438
  67.0098320  76.6868399  68.5583278  68.6641218  75.8896058  68.7904423
  68.3875092  77.2672449  70.8518996  67.8269830  78.0961893  70.4219199
  68.6194353  77.3180289  71.9160369  69.3518830  77.2076560  70.3455417
  65.0008231  76.7799381  73.4672785  65.2693746  77.9330782  73.8217485
  63.8454293  76.1717966  73.6914101  63.7422488  75.2944855  73.2030527
  62.7698684  76.7568596  74.4796907  62.7566384  77.8237252  74.2589200
  61.3638610  76.1044349  74.1461685  61.4180359  75.0437752  74.3944165
  60.5304094  76.4786230  74.7404907  61.0000560  76.2928008  72.7003935
  61.8519346  76.2560049  72.0207893  59.9772629  75.2605384  72.1961700
  59.6127628  75.5412087  71.2090140  60.5375091  74.3250671  72.2001462
  59.1128356  75.0574684  72.8286588  60.3002905  77.6595594  72.5430204
  59.4049844  77.5643438  73.1552377  61.0441178  78.4132869  72.8025618
  60.0448319  77.9014726  71.5107666  63.0127421  76.7350764  75.9942757
  62.5351255  77.5876533  76.7678925  63.6810537  75.6775272  76.4766784
  63.9165639  74.9357605  75.8343458  63.8538333  75.3478642  77.9541301
  62.9759267  75.7607097  78.4507826  63.8698984  73.8685064  78.0753211
  64.4880363  73.3988997  77.3102819  64.2707469  73.4904581  79.0158581
  62.6038599  73.0521387  77.8119442  62.1628055  73.4299830  76.8895854
  62.8154381  71.5486593  77.8243704  63.5194804  71.3371841  77.0208527
  63.2129585  71.2698820  78.8007990  61.9437829  70.9242388  77.6267138
  61.6450562  73.2973563  78.9240718  61.2195343  74.2948935  78.8248371
  60.8470996  72.5550929  78.8866105  62.1040405  73.1798831  79.9058983
  65.1756413  76.0101138  78.4853994  65.2245364  76.2377153  79.7072619
  66.1364536  76.5585054  77.6572761  66.1736729  76.2444469  76.6979065
  67.1494764  77.5477389  78.0685532  67.6499104  77.2300497  78.9831380
  68.0770291  77.6532513  76.8865121  68.5419486  76.6798074  76.7330784
  67.5339170  77.8901476  75.9716305  69.2991415  78.5844196  76.8622011
  69.6780058  78.6852530  75.8452786  69.0659783  79.5833435  77.2294707
  70.3794362  78.0781329  77.8036479  70.0867858  77.1716077  78.5905645
  71.4784488  78.6086489  77.6833933  66.4804842  78.8847696  78.3001727
  66.7956862  79.6004551  79.2889370  65.5636129  79.2982488  77.3808752
  65.5319493  78.8021068  76.5018408  64.6935974  80.4686627  77.4903535
  65.2490359  81.2834346  77.9524517  64.1010429  80.6918645  76.0415554
  64.8287527  80.3643551  75.3008543  63.2004584  80.0831805  75.9592610
  63.7228636  82.1681131  75.8043057  63.2720434  82.1475236  74.8125264
  62.9568188  82.4404371  76.5303437  65.0011223  83.0670510  75.8364818
  65.4387885  83.0855382  76.8357813  65.7805635  82.5547489  75.2714410
  64.9007366  84.4622815  75.3228795  64.8383876  84.3802102  74.2370462
  63.8883366  84.7983130  75.5464531  66.0314211  85.3258791  75.7911507
  66.0934967  85.3431064  76.7981411  66.8566064  84.9139307  75.3772608
  65.8586180  86.2667914  75.4706744  63.5017316  80.3606087  78.5400688
  62.8660766  81.3298521  78.8384879  63.2245507  79.1828955  79.0703946
  63.7797531  78.4786704  78.6068008  62.2071305  78.8501801  80.0831915
  62.3609827  77.7748916  80.1793690  62.6748618  79.3971325  81.3845352
  63.7466826  79.5937142  81.3754899  62.1712619  80.3633265  81.4319819
  62.3107130  78.6779496  82.6548634  61.7558027  77.5965280  82.8021105
  62.5936651  79.3108367  83.7679232  62.0286840  78.9860209  84.5398999
  63.0086554  80.2306752  83.7261004  60.7400352  79.1527090  79.6744022
  60.0037957  79.6968853  80.5090216  60.4003985  78.8945550  78.4077750
  61.1343124  78.4932078  77.8415889  59.1618832  79.1208803  77.7878929
  58.6131678  79.9458198  78.2423245  59.3894413  79.5113538  76.3383493
  59.9252686  78.7410081  75.7836858  58.4816761  79.5264256  75.7352993
  60.0694552  80.9237961  76.0991485  60.8117433  81.0873170  76.8815501
  60.5825872  80.8802691  74.7082564  61.2788703  80.0504270  74.5879650
  59.7405974  80.9114965  74.0161357  61.0627562  81.8226860  74.4444742
  59.1421591  82.0649304  76.2969198  58.3587531  81.9532952  75.5476571
  58.6859801  82.1185401  77.2860076  59.6163620  83.0405924  76.1835875
  58.2167507  77.8873518  77.9253342  58.5669222  76.7270489  77.6813158
  56.9773427  78.1529291  78.2212236  56.7311831  79.1094709  78.4262562
  55.8127253  77.2710026  78.3730320  56.2037701  76.3682914  78.8433790
  54.8011383  77.8805276  79.3714053  55.2252150  78.1760767  80.3314359
  54.3592696  78.7741289  78.9316841  53.7445487  77.0594539  79.5875636
  53.3194582  77.2770429  80.4211577  55.1014414  76.8908321  77.0668913
  54.6648466  77.7257443  76.2517799  55.0950808  75.6505287  76.7473430
  55.3256382  74.9635815  77.4504681  54.6855079  75.0449677  75.5169826
  54.0879614  75.8129365  75.0275430  55.8405647  74.8857692  74.4977174
  55.4746106  74.6651562  73.4943469  56.2202488  75.8846334  74.2809935
  56.9714075  74.0119052  74.9652636  56.8764064  72.5842828  74.9457395
  55.9711603  72.1119670  74.5918240  57.9942079  71.7926155  75.3380551
  57.9904791  70.7152614  75.2561570  59.1682703  72.4271503  75.8277420
  60.0114904  71.8550137  76.1833113  59.2230105  73.8481137  75.8683308
  60.0970061  74.3288246  76.2844229  58.1432975  74.6413491  75.4078403
  58.1180845  75.7210400  75.4337839  53.8770184  73.7662669  75.7451715
  54.0140017  73.0510597  76.7709903  52.9713622  73.4104173  74.8011700
  52.8429571  74.0634398  74.0414498  52.1462408  72.2083128  74.9734090
  51.6536961  72.1524110  75.9448681  51.0370767  72.2957819  73.9294122
  51.3267390  72.6642435  72.9445702  50.6627322  71.2731165  73.8667815
  49.8662518  73.2173791  74.4620300  49.5333891  72.9902150  75.4734378
  50.2582475  74.7040142  74.2121089  50.9593192  75.1243597  74.9319778
  50.6074544  74.8432280  73.1879488  49.4715994  75.4521900  74.3042971
  48.5911483  72.9108931  73.5486219  48.0254989  72.0019605  73.7512331
  47.7991830  73.6034206  73.8325703  48.9033130  72.9490164  72.5052113
  52.9628247  70.9256343  74.7410822  54.0037428  70.9296415  74.0465050
  52.4319974  69.7710942  75.1701142  51.6030053  69.8816421  75.7372335
  52.9816562  68.4472534  75.0505955  54.0710497  68.4423096  75.0107663
  52.5491327  67.6175135  76.2310569  52.5492777  68.2171286  77.1413309
  51.4923358  67.3499109  76.2461289  53.4500723  66.4045894  76.5890415
  53.0135695  65.5200236  77.4001503  54.6722774  66.5067068  76.2832706
  52.5211218  67.6533834  73.8336369  51.4176204  67.7494653  73.3875764
  53.3993847  66.8094874  73.3794731  54.2116707  66.8019750  73.9795922
  53.2199208  65.9191243  72.2884885  53.0892841  66.5387780  71.4014438
  54.6012019  65.1438719  72.1585187  55.3482960  65.9052208  72.3804271
  54.6440987  64.2891913  72.8335728  54.8772545  64.7385520  70.7588356
  54.0473663  64.1791591  70.3276882  54.9087033  65.5728033  70.0589143
  56.0623537  63.7980360  70.7090505  55.9279829  62.5467825  70.5981586
  57.2082453  64.3883876  70.7134516  51.9186742  65.0284876  72.3756005
  51.2485929  64.8574957  71.3571812  51.5697362  64.6065308  73.6259716
  52.2669194  64.6565103  74.3555821  50.2825549  63.9399283  73.9770378
  50.1054850  63.1169065  73.2840563  50.4787553  63.3200841  75.3197923
  51.1281335  63.9994149  75.8712438  49.5458689  63.2606867  75.8814746
  51.0742453  61.8964001  75.2293911  51.9982829  61.5464663  75.9133025
  50.6627833  61.1726459  74.2678648  49.0192774  64.7774821  73.8688738
  48.0357133  64.2098518  73.5324358  49.0497744  66.1035013  74.1165734
  49.9407790  66.5095466  74.3660169  47.8981289  66.9870134  73.7848806
  46.9874880  66.5495476  74.1944168  48.0748127  68.3299237  74.5020428
  48.8698129  68.8931497  74.0143490  47.1878269  68.9289129  74.2992298
  48.4149625  68.3909490  76.0675111  47.7016892  67.7887734  76.6290266
  49.3308516  67.9034554  76.4031109  48.5970338  69.8462513  76.4565087
  49.7299640  70.3455275  76.4083905  47.5675443  70.4811117  77.0105807
  46.7296625  70.0000537  77.3046186  47.7301044  71.4183978  77.3514896
  47.7633642  67.2063228  72.2716662  46.6059323  67.4027794  71.8494893
  48.8854980  67.1478818  71.4902603  49.7736029  67.1095480  71.9702397
  48.7745850  67.3248844  69.9909827  47.9670828  68.0281108  69.7820070
  50.0892644  67.8929877  69.4191297  50.8421897  67.1069383  69.4588255
  49.8777310  68.2245490  68.4018025  50.6935084  69.1315822  70.1852040
  50.6330019  68.8986154  71.2477239  52.1584293  69.3183168  69.7846969
  52.6135982  68.3739558  69.4878996  52.1620497  69.8856742  68.8549773
  52.7355658  69.8997143  70.5027474  49.8670052  70.4025811  69.8479930
  48.8477445  70.2075281  70.1815766  50.2459616  71.2369317  70.4385075
  49.8580970  70.4938097  68.7616644  48.4287657  66.0319381  69.2153417
  47.8888033  66.0501967  68.1116093  48.6679700  64.8915383  69.8535060
  48.9978046  64.9357273  70.8074098  48.0860929  63.6263109  69.3979593
  48.1485299  63.6268003  68.3089339  48.6789081  62.3385409  69.9755651
  48.9686969  62.4824554  71.0169512  48.0075648  61.5091268  69.7546321
  50.1437003  61.9779944  69.4366040  50.0026138  61.9250403  68.3572197
  50.9001014  62.7405770  69.6184892  50.6327487  60.6716178  70.0305574
  49.7608760  60.0761304  70.3001714  51.3211798  60.1704369  69.3497260
  51.2795770  60.9151372  71.3545009  50.6719921  60.8449732  72.1574509
  52.5351779  61.3120312  71.4795670  53.2948544  61.5923634  70.4101917
  52.8775118  61.7292020  69.4998350  54.2547699  61.8328129  70.6090162
  52.9966612  61.3893342  72.7404205  52.3644952  61.1941325  73.5037176
  53.9050267  61.7997382  72.9053619  46.5449260  63.5350046  69.6068053
  45.8581952  62.8392826  68.8378334  46.0323942  64.3127747  70.5824737
  46.5904696  64.8155267  71.2583629  44.5708461  64.3822315  70.7289894
  44.1089060  63.3967377  70.6535812  44.3198945  64.7735996  72.1419499
  44.8857745  65.6343314  72.4967323  43.2488627  64.9786269  72.1549380
  44.5786734  63.9091534  72.7514713  43.7786010  65.1731388  69.6468996
  42.6158485  64.9326454  69.2636106  44.4090756  66.1440448  68.9806021
  45.3443689  66.3192563  69.3195792  43.7368256  67.0181153  67.9485432
  42.9019109  67.6016495  68.3399243  44.6999076  68.1205093  67.5944095
  45.7109494  67.8643482  67.2798861  44.2150226  68.6627373  66.7817587
  44.7559870  69.0655920  68.7724977  43.7513769  69.4012997  69.0287548
  45.2286770  68.4499098  69.5380978  45.8844585  70.1722013  68.6505914
  46.8055486  69.7033325  68.3031721  45.6034887  70.9228403  67.9125962
  46.1065668  70.8851810  70.0593929  46.7166746  70.2162007  70.6678891
  46.7827958  71.7275704  69.9103275  44.8721779  71.2878694  70.6692718
  44.2951882  70.4847089  70.8764289  45.1375768  71.7307765  71.5369553
  44.3276157  71.9372547  70.1172892  43.0621587  66.3430681  66.7811971
  42.0698371  66.8669030  66.2666130  43.5789175  65.1948780  66.2802372
  44.5394852  64.9896714  66.5127988  42.9839354  64.5785609  65.0732162
  43.5862074  63.6719611  65.0091758  41.9246597  64.3263603  65.0391900
  43.2954250  65.2951346  63.8002066  42.5815596  65.0457412  62.7882030
  44.4009861  65.9941427  63.7357150  44.8691956  66.1346688  64.6191024
  44.8299286  66.7084363  62.5689768  44.0242183  66.8270271  61.8442609
  45.3525780  68.0733581  62.9878887  46.2148129  67.8916854  63.6290844
  45.6385269  68.6332200  62.0963317  44.3561171  68.9763154  63.6938262
  42.9623967  68.8716114  63.4299904  42.5257154  68.1405059  62.7657719
  41.9956237  69.7339524  64.0667980  40.9258034  69.7730050  63.9210161
  42.5275365  70.6775104  64.9737362  41.7109497  71.4260824  65.7556704
  42.1089423  72.1925014  66.1741937  43.8836287  70.8017966  65.2470403
  44.1691003  71.4960430  66.0234242  44.7960339  69.9054830  64.6205289
  45.8604550  70.0500112  64.7339854  45.8523585  65.9845787  61.7474975
  46.8573053  65.4895162  62.2539114  45.7376905  66.0519448  60.4204399
  44.8300529  66.3217085  60.0675297  46.6639831  65.4489615  59.4613996
  46.9343692  64.4677642  59.8495493  46.1085896  65.3494086  58.0440252
  46.8447158  65.1149449  57.2742440  45.4182304  64.5065131  58.0884480
  45.3302372  66.5431516  57.5408563  44.4388514  66.2154459  56.6815441
  45.7263279  67.7261191  57.6831447  48.0544963  66.2084933  59.3561497
  49.0979210  65.5066589  59.2242095  48.1912008  67.4804884  59.6915440
  47.2993437  67.8758789  59.9510748  49.3957350  68.3844072  59.6496128
  50.2926229  67.7779383  59.5313604  49.3170446  69.1820233  58.3546552
  48.3918998  69.7568410  58.3049291  50.1141014  69.9207433  58.4382210
  49.4121861  68.3371582  57.0394479  50.2929655  67.7068703  57.1600243
  48.5416180  67.6906964  56.9272898  49.4730214  69.3448081  55.8457986
  48.4955660  69.8209057  55.7603521  50.2756704  70.0346773  56.1050070
  49.9104892  68.5342255  54.5756735  49.8255624  67.4870474  54.8656225
  49.2340931  68.8013570  53.7636278  51.2552108  68.8516492  54.1183377
  51.2210813  69.8434415  53.9357666  51.8663031  68.8931776  54.9219884
  51.6123931  68.3284928  53.3314665  49.3873691  69.3065160  60.9036285
  48.3626294  69.6916263  61.4217237  50.5861823  69.6100913  61.4366416
  51.3671956  69.3630722  60.8443893  50.9438247  70.1911846  62.7145369
  50.2420550  71.0098275  62.8751579  50.7337465  69.1752704  63.8781986
  51.2810087  68.2960937  63.5349165  51.2579650  69.7569746  65.1779582
  52.3466162  69.7083874  65.1541510  50.8855022  70.7665318  65.3564037
  50.9657868  69.0558805  65.9596986  49.4018143  68.8533418  64.1372363
  49.2184711  67.9976356  63.7420892  52.4436491  70.6641419  62.6665242
  53.3100862  69.9295320  62.2230233  52.7693077  71.9044405  63.1691839
  51.7638863  72.9646406  63.5527483  50.9039697  72.7919023  64.1984145
  51.3194663  73.4537728  62.6855318  52.5767894  74.0698619  64.2428030
  52.7085612  73.8559511  65.3031003  52.0505362  75.0187325  64.1332856
  53.9472646  74.0135272  63.5796263  54.7251861  74.4761906  64.1856475
  53.9188602  74.6147944  62.6703893  54.1479453  72.4983611  63.3706600
  54.7710005  72.4525799  62.4777858  54.9271395  71.8996762  64.5227511
  54.4593144  70.9476873  65.1959976  56.2222311  72.1960771  64.7446501
  56.6853185  72.9990626  64.3429981  57.0467322  71.3572646  65.6810771
  56.9055290  70.3076793  65.4227260  58.5471398  71.5689471  65.4014762
  58.9220941  72.5646621  65.6439383  59.1193581  70.8675322  66.0084320
  58.8697347  71.3146845  63.9219776  58.0601693  70.6520214  63.1847514
  59.8759535  71.6596419  63.3066964  56.6954009  71.5215069  67.2933860
  56.6247858  70.5633501  68.0581101  56.3948909  72.7541388  67.6616431
  56.4937730  73.4971800  66.9859596  56.0581456  73.1409848  69.0573120
  55.5074510  72.3287761  69.5333273  57.3018579  73.4276554  69.9493673
  57.9534369  74.1236143  69.4214451  57.0307553  73.8793004  70.9043140
  58.1033402  72.2035029  70.3336990  57.8661430  71.4789721  71.4659559
  57.1316450  71.8318616  72.1735545  58.6617166  70.3310158  71.7292081
  58.4516710  69.7950503  72.6441244  59.8220887  70.0544085  70.9927944
  60.4348389  69.1813262  71.1539201  60.0069721  70.7282145  69.8095056
  60.8261818  70.5276702  69.1330979  59.1671951  71.8710969  69.5309457
  59.3131552  72.4712933  68.6451574  55.1001730  74.3282880  69.0667288
  55.2729183  75.2635092  68.2963138  54.1823416  74.3338801  69.9780906
  54.1309753  73.5487739  70.6122315  53.1217886  75.3448424  70.1493318
  53.3654288  76.1271815  69.4298675  51.7570419  74.7565226  69.7479265
  51.6188092  74.0731191  70.5856744  50.6702951  75.8316135  69.5410204
  50.8768405  76.4057698  68.6390351  49.6889737  75.4118146  69.3176481
  50.5379938  76.4509770  70.4278001  51.9809583  73.8871616  68.3997957
  52.5249123  74.4657865  67.6528150  52.5417036  73.0315747  68.7764356
  50.6975924  73.3413952  67.8259132  50.0467766  74.1510290  67.4954969
  50.9037124  72.7473796  66.9345188  50.1657591  72.7237302  68.5488740
  53.2384713  75.9743422  71.5478597  53.1510917  75.3311351  72.6150464
  53.4585270  77.3040230  71.4962515  53.5347924  77.7938080  70.6168629
  53.6074855  78.0094062  72.8128771  54.2812090  77.4163873  73.4310124
  54.2900164  79.3780384  72.6448195  53.8688207  80.0051562  71.8603894
  54.2232025  79.8137534  73.6414836  55.7335859  79.1168587  72.1786929
  56.0670383  78.1135391  72.4447801  55.9786119  79.2811852  70.6266732
  55.2778664  78.6896883  70.0378505  55.7885889  80.3146224  70.3350522
  56.9380096  78.8558824  70.3341040  56.6156780  80.1261874  72.9178851
  56.4621639  81.1625689  72.6127575  56.3296724  80.0385211  73.9656768
  57.6429153  79.8315020  72.6987115  52.2372317  78.2302319  73.5327956
  51.2298350  78.6510730  72.9829978  52.3259606  78.0494182  74.8322350
  53.2356903  77.8203110  75.2085472  51.1456766  78.1240844  75.8220403
  50.3077096  77.6381200  75.3210934  51.4714947  77.3032358  77.1442412
  51.8521788  76.3015277  76.9488605  52.3142971  77.8182963  77.6043343
  50.3702663  77.2375533  78.1449308  50.6069729  76.6591236  79.0371489
  50.1371265  78.2609864  78.4409031  49.1056418  76.5711459  77.5780841
  49.1491698  75.5216632  76.9583283  47.9595417  77.2536156  77.4759478
  47.9249959  78.2193907  77.7676772  47.4243190  76.9604835  76.6716405
  50.8175283  79.5817078  76.0751976  49.6446666  79.9713783  76.0917352
  51.9040392  80.3512133  76.3218173  52.8189477  79.9291296  76.3851643
  51.8229009  81.7134098  76.7262419  50.9015141  81.8360148  77.2970829
  53.1081041  81.9290549  77.5226160  53.2876088  81.0778952  78.1787000
  54.3943284  82.2225318  76.7057394  55.2585602  82.1528223  77.3669663
  54.6675886  81.3492137  76.1150031  54.2744999  83.1202062  76.1004208
  52.9255725  83.0441385  78.5039926  51.9599707  82.9262844  78.9953007
  53.6986819  82.9191803  79.2616576  53.0500581  84.0278873  78.0500867
  51.6804333  82.7111848  75.5204914  52.1925008  82.4051954  74.4413258
  51.0294161  83.8582765  75.6395004  50.2845908  84.3028996  76.7962897
  50.9448943  84.3029374  77.6636491  49.4386928  83.6524223  77.0161802
  49.7881404  85.7095368  76.6051726  50.4153964  86.4675471  77.0737015
  48.7753172  85.9090151  76.9553876  49.9254116  85.8431415  75.0156552
  50.3203751  86.8341408  74.7899491  48.9969107  85.6981532  74.4620403
  50.9866419  84.8243636  74.6339776  50.7062350  84.4690186  73.6420498
  52.3634938  85.5623688  74.4688949  53.0909505  85.8797511  75.4502755
  52.8371610  85.5611031  73.1887344  52.2525734  85.1821818  72.4584022
  54.2888230  85.7039374  72.8377346  54.6970400  86.3741883  73.5943247
  54.9642983  84.2952770  72.9109874  54.6624785  83.9271612  73.8922135
  54.4979843  83.2851515  71.9485916  53.4423571  83.1510755  72.1829518
  54.6443315  83.7265088  70.9636269  54.9965267  82.3478955  72.1971888
  56.5266031  84.4212765  72.8130405  56.6819552  85.1656140  73.5936412
  56.9826983  83.4403363  72.9468556  56.9224041  84.8519948  71.8932267
  54.5363159  86.3551488  71.4672252  53.7566967  86.1293220  70.5402748
  55.5730079  87.2293789  71.3775283  56.2883178  87.1805957  72.0892958
  55.9382450  87.9105220  70.1978025  55.4646455  87.4315775  69.3408331
  55.3742031  89.3280868  70.3530695  55.5085700  89.9392952  69.4608522
  54.2861441  89.3310718  70.4006693  55.7418987  89.8891307  71.2125034
  57.4877016  87.9786409  69.9538906  58.2650452  87.7132486  70.8105520
  57.9482019  88.4077414  68.7458731  57.3410260  88.7661274  68.0217717
  59.3580047  88.6625968  68.3206567  59.9327104  88.9157282  69.2115668
  59.9538024  87.3563715  67.7418333  60.2838124  86.6586170  68.5113767
  59.1038898  86.6471848  66.6701034  58.7451612  87.3420640  65.9105584
  59.6281435  85.7373723  66.3777434  58.1788878  86.3952346  67.1893561
  61.2715597  87.8018328  67.0461358  61.8775862  86.9528003  66.7318896
  61.0032836  88.3101135  66.1197786  61.8017247  88.5177670  67.6733593
  59.2676474  89.9087375  67.3401105  58.3846371  89.9740041  66.4780438
  60.1025376  90.9467064  67.4713811  60.7222148  90.8811961  68.2669077
  60.2015541  92.1397125  66.6181349  60.5636059  92.7983303  67.4088049
  61.1708050  91.9636358  65.5128916  61.4114909  92.9130684  65.0364274
  62.1153224  91.5898963  65.9080264  60.7413229  91.0558891  64.3335740
  60.4510687  90.0636710  64.6794611  59.8708509  91.4534784  63.8137257
  61.8253302  90.7325172  63.3220594  62.9692181  90.6038720  63.7622410
  61.5365627  90.6855909  62.0901628  58.8704283  92.8028228  66.1306991
  58.7465044  93.4377341  65.0980964  57.8593664  92.6267554  66.9534671
  58.0470724  92.2086979  67.8534756  56.5198559  93.1963022  66.7291920
  56.1770641  93.6338825  67.6669096  56.4973947  94.1010119  66.1210220
  55.5573960  92.1471981  66.2140934  54.3802649  92.4343724  66.2008935
  55.9427863  90.9183235  65.8724863  56.9286329  90.7146058  65.9394467
  55.1929594  89.8359841  65.2576699  54.2957169  90.2228593  64.7753655
  56.1418952  89.2221039  64.1808055  56.5304590  90.0121816  63.5378806
  56.8264960  88.6878644  64.8387864  55.4524403  88.3007142  63.2993050
  55.3304292  86.9707931  63.5566490  55.7900661  86.4076964  64.2566719
  54.5810310  86.4763724  62.5444457  54.3219186  85.4295274  62.4974968
  54.3193958  87.4389940  61.6486038  54.7764730  88.5899064  62.1582804
  54.7029693  89.5815744  61.7380570  54.7601117  88.8535951  66.3565951
  55.6039178  88.1437894  66.9367995  53.4392201  88.6936967  66.5749227
  52.8523222  89.1937085  65.9222911  52.8659486  87.7222515  67.4340764
  53.4193615  87.7779118  68.3721644  51.3994570  88.0951134  67.8366760
  50.6742281  87.9271630  67.0401902  51.0433308  87.1230553  69.0232202
  49.9579590  87.0383864  69.0813357  51.4146826  86.1106376  68.8667653
  51.5877268  87.3969659  69.9267616  51.2882321  89.4730570  68.4593592
  50.5385201  89.4910788  69.2485925  52.2260823  89.6809744  68.9751123
  50.9318213  90.5831772  67.4557271  51.8305747  90.9448379  66.9547401
  50.1432421  90.3442521  66.7432135  50.6360644  91.4841035  67.9944856
  53.0144881  86.2689702  66.8560009  52.6835164  86.1254824  65.6533393
  53.6438241  85.3227028  67.5730060  53.8999002  85.5420609  68.5250517
  53.7420212  83.9556841  67.1906890  53.1735194  83.8341288  66.2688235
  55.1942530  83.5148310  66.9053065  55.2341842  82.4708543  66.5943544
  55.8598386  84.4748919  65.8270580  55.2721420  84.5113267  64.9109957
  56.0565178  85.4386046  66.2952718  56.7714160  83.9769768  65.4955703
  56.0250982  83.5557278  68.1011413  55.9775160  84.5063181  68.6327049
  55.5431522  82.8017615  68.7232642  57.5409564  83.2366256  67.9503150
  57.9804780  83.2181232  68.9473068  57.7608088  82.2591283  67.5222695
  58.0896127  84.0132744  67.4169120  53.0827779  83.0327365  68.2481199
  52.9710700  83.3540145  69.3919734  52.6853981  81.8477115  67.8101897
  52.6709042  81.5833927  66.8353058  52.0722903  80.8360647  68.6091694
  52.1525815  81.0711972  69.6714368  50.5619584  80.6930877  68.2575215
  50.3910895  80.3069407  67.2511139  50.1535372  79.9640419  68.9561761
  49.7950379  81.9470651  68.4841219  49.0447778  82.1776686  69.6146610
  48.4956056  83.3958200  69.3911323  47.8707620  83.8747408  70.1314879
  49.0554219  84.0134998  68.3229833  48.6052872  84.8180568  67.9133250
  49.9058715  83.1074561  67.7445533  50.5673474  83.2416090  66.9017642
  52.7830791  79.5099039  68.4449212  52.5979464  78.5558814  69.1401427
  53.6288037  79.2906980  67.4151373  53.6745659  79.9235903  66.6293109
  54.4007929  78.0369684  67.2345723  54.6425509  77.5091677  68.1569597
  53.4181477  77.1323000  66.4468899  53.8138410  76.1639851  66.1386969
  52.5632283  76.9703810  67.1047204  52.8434197  77.7301029  65.1938294
  51.6570802  78.3083223  65.0715518  50.8746334  78.3161254  65.8158294
  51.5399021  78.7184845  63.7533526  50.7737956  79.3363550  63.5223139
  52.6031440  78.3755673  62.9721199  52.9359222  78.5819738  61.6260464
  52.1801772  78.9037822  60.9250600  54.2683154  78.4797570  61.1758453
  54.5271697  78.5331681  60.1292289  55.2596846  77.9316433  62.0549724
  56.3046605  77.9016633  61.7840453  54.8053951  77.5213444  63.3401451
  55.4630402  76.9358382  63.9657667  53.5572173  77.8711245  63.8795997
  55.6619663  78.2256428  66.4056166  55.8829450  79.2567124  65.7687030
  56.5283965  77.1927667  66.4408121  56.2723770  76.2970263  66.8312644
  57.7905836  77.0932009  65.6303915  57.9901093  77.9468269  64.9825449
  58.9928586  77.2671837  66.5724508  59.0437003  76.3867199  67.2139028
  60.3168461  77.3742613  65.7659308  60.2808246  78.0205412  64.8882665
  61.1614183  77.4880291  66.4452567  60.4648780  76.3647801  65.3824371
  58.8873447  78.5670155  67.4685201  58.5470482  79.4334449  66.9020677
  58.0476359  78.4105189  68.1456958  60.1419531  78.9321153  68.3082099
  60.4267709  78.1146696  68.9696344  60.9548623  79.2874782  67.6740572
  59.8281036  79.7276556  68.9837291  57.8275530  75.7787252  64.7830687
  57.4286940  74.7189120  65.2376382  58.4400084  75.9143890  63.5529700
  58.5361272  76.8369732  63.1540206  58.7447182  74.8988487  62.5657949
  58.8657101  73.9046004  62.9953576  57.6152200  74.9400526  61.5107963
  56.7392112  74.4513017  61.9386481  57.3041809  75.9651849  61.3091595
  57.9834122  74.1171848  60.2544905  57.3679187  74.5207065  59.4506672
  59.0287094  74.2708854  59.9876009  57.6934535  72.6295674  60.4795622
  58.5983582  71.8505429  60.8468964  56.5251553  72.2471761  60.2108650
  60.2100063  75.1458632  61.9737435  60.6341575  76.2217106  61.7318550
  60.9122486  74.0356465  61.8768528  60.5431231  73.1375474  62.1517825
  62.3165875  73.8914785  61.3452951  62.7903860  74.8364141  61.6084276
  63.0665939  72.8988182  62.2113348  62.9599619  73.1934189  63.2564788
  62.7181544  71.8678052  62.1481994  64.4082730  72.9644594  61.9024894
  64.7163254  72.0546890  61.8953854  62.3489821  73.5932133  59.8533241
  61.5051564  72.7730672  59.4114728  63.3340522  74.1151388  59.1902828
  63.8582487  74.8271019  59.6779011  63.7419063  73.6804373  57.8808831
  63.3998328  72.6599428  57.7149380  63.0842635  74.5252101  56.8071435
  63.3057453  75.5723175  57.0185243  63.5311122  74.2400835  55.8554975
  61.5326611  74.4622943  56.6171184  61.0847180  74.6590735  57.5908221
  61.3137194  75.2819105  55.9327019  61.0059295  73.1403855  56.0064196
  61.3205329  72.9321010  54.9829651  61.3237138  72.2680593  56.5769247
  59.4660582  73.2631933  56.0057174  59.0870307  73.6595000  56.9471037
  59.1635735  73.9770287  55.2397473  58.7701155  71.9465768  55.8297583
  59.1815644  71.2324787  56.4132544  57.7931452  72.0073670  56.0818448
  58.8274167  71.6706256  54.8607172  65.2526777  73.5821370  57.7262356
  65.9259959  74.6031766  57.8789277  65.6804797  72.4109268  57.3377023
  65.0433508  71.6396260  57.1964514  66.9955285  71.8587805  57.1143572
  67.7344929  72.6059328  57.4034472  67.2903055  70.5112755  57.8464847
  67.1400982  70.5184819  58.9257561  66.5423348  69.7876761  57.5218962
  68.3171692  70.1664840  57.7255468  67.3068522  71.7658557  55.6115756
  68.2306233  71.0654095  55.2216624  66.5035197  72.5173483  54.8381613
  65.7443266  73.0194473  55.2757975  66.7518709  72.9740594  53.4494883
  67.8053235  72.7576010  53.2741016  65.8978640  72.1924251  52.4484803
  66.3345965  71.1927244  52.4713760  64.8442943  72.1656280  52.7260029
  66.0105163  72.6247372  51.1259926  65.3406574  73.2891331  50.9502512
  66.6075009  74.4922109  53.2459632  65.8653658  75.0746992  53.9804505
  67.2371722  75.0803175  52.2183321  67.7490435  74.5168598  51.5535394
  67.2667279  76.5986138  52.0669494  67.4713185  77.1244497  52.9990547
  68.3932886  76.8594797  51.0542308  69.3829345  76.6411472  51.4568547
  68.2837953  76.2844016  50.1350761  68.6091850  78.3395210  50.6739581
  67.7939341  78.8452378  49.6566069  67.1527492  78.2641649  49.0101224
  67.7157906  80.2713795  49.5316327  67.0501636  80.7408012  48.8232966
  68.4888951  81.1704649  50.3222362  68.5257430  82.1987231  49.9935643
  69.4015089  80.6499602  51.2536351  69.9407969  81.3107573  51.9157105
  69.3381856  79.2523293  51.4327414  69.9213810  78.9895074  52.3035753
  65.8620348  77.1579319  51.6144999  65.0844819  76.5171722  50.9653216
  65.5546650  78.3578423  52.0549598  66.2822533  78.9500872  52.4280514
  64.3230677  79.0902500  51.7514125  63.4688655  78.4130967  51.7881543
  64.1400460  79.9122173  52.4417535  64.3225293  79.6882234  50.3059687
  64.2642430  80.9329834  50.1502635  64.3512414  78.8595273  49.2189713
  64.3027958  77.8889184  49.4948034  64.0011065  79.2158794  47.8085626
  64.5087109  80.1140148  47.4563245  64.3016399  78.0587133  46.9244878
  65.3127102  78.2783943  46.5834624  64.3181941  77.1632773  47.5456618
  63.3499609  77.8579653  45.7111679  63.0750721  78.8509717  44.9897281
  63.0422943  76.7034376  45.4761846  62.4961032  79.5528934  47.7962865
  61.6927026  78.7933858  48.3233242  62.1197329  80.5482225  47.0188637
  62.8160361  81.1285877  46.5731597  60.6976318  80.9681341  46.9066916
  60.3110462  81.2142084  47.8961830  60.7213970  82.2917660  46.0835976
  61.4860262  82.9496032  46.4963327  61.1372371  82.1151091  45.0908809
  59.3720123  83.0177580  45.8618487  58.7148004  82.8946397  46.7231596
  59.5126579  84.0976400  45.9114756  58.7708504  82.5181098  44.5023017
  57.6912108  81.9482178  44.5265552  59.3942200  82.7344635  43.4171720
  59.7607119  79.8354022  46.3394865  58.6186245  79.8017258  46.7267374
  60.2394161  78.9095000  45.5009989  61.2133188  79.0163886  45.2545169
  59.3933429  77.8678101  44.9246698  58.4397938  78.3416234  44.6952988
  59.9294369  77.4801695  43.5403783  61.0182480  77.5141554  43.5598799
  59.5786359  76.5533565  43.0869587  59.4830228  78.7862092  42.3287679
  58.1629838  78.7517171  42.5257990  59.2010744  76.6765526  45.7932136
  58.0984773  76.1811864  45.8970778  60.1564229  76.5364573  46.7138198
  60.8932624  77.2251490  46.6521409  60.0815218  75.5618312  47.8677629
  59.7126611  74.5644327  47.6251169  61.4458089  75.3064447  48.4513838
  61.8589357  76.2722360  48.7426764  61.3766080  74.6017815  49.2806678
  62.3625412  74.7957052  47.4296005  62.7010944  75.4893950  46.8601489
  59.1434446  76.1803406  48.8488272  58.1823551  75.5628510  49.3651359
  59.3903336  77.4330978  49.2375345  60.1001787  77.9950049  48.7896135
  58.5027255  78.1675746  50.2311862  58.4156174  77.5182478  51.1024610
  59.1525548  79.5786850  50.5372047  60.1340631  79.3892920  50.9707848
  59.1492081  80.1891566  49.6344782  58.2726766  80.2326708  51.5450142
  58.5830079  80.4194192  52.8748588  57.6338643  81.0884402  53.4729034
  57.4639656  81.2456815  54.5273599  56.7488821  81.3767707  52.5373003
  55.9245588  81.9580168  52.6046883  57.1253762  80.9038068  51.3111505
  56.6029848  80.9762400  50.3697831  57.0527242  78.2106341  49.7406691
  56.1160105  78.0340297  50.4870887  56.9047972  78.4366244  48.4261079
  57.6776751  78.7009093  47.8321085  55.6095636  78.4705592  47.8076193
  55.0375241  79.2756371  48.2691573  55.8527749  78.9549505  46.3650354
  56.2272648  79.9761854  46.3042524  56.4991422  78.2650687  45.8219669
  54.6085958  79.0003911  45.5494451  53.9523775  77.9143698  44.9597061
  52.8780866  78.4106473  44.3195727  52.2008011  77.7420134  43.8112577
  52.7683312  79.7224483  44.6395085  51.9944107  80.3151680  44.3797926
  53.8722142  80.1312738  45.3374841  54.1184646  81.1576971  45.5692532
  54.8655216  77.1654790  47.9440932  53.6446864  77.0813826  48.2281762
  55.5757152  76.0875857  47.8039246  56.5330631  76.0435858  47.4875025
  55.0075440  74.7545264  48.1077592  54.0649469  74.6962944  47.5653087
  55.9073648  73.5468376  47.8046286  55.4630554  72.8163628  48.4800023
  55.8442491  73.3267953  46.7383253  56.8930391  73.8310814  48.1732487
  54.5779450  74.7218766  49.6250646  53.3797224  74.5434822  49.9446800
  55.5288040  74.9510432  50.5620555  56.4858662  75.0694664  50.2610176
  55.2034740  74.8994958  52.0314667  54.7440263  73.9476782  52.2957550
  56.4518018  75.0868423  52.9090160  56.7334757  76.1398218  52.8970128
  56.3391544  74.7793793  53.9480700  57.6897924  74.3068193  52.3706958
  57.5917261  72.9973751  51.8857734  56.6178581  72.5834099  51.6710852
  58.7106360  72.3762261  51.3415495  58.6180421  71.3719578  50.9523072
  59.9500988  73.0264093  51.3647818  61.0874273  72.4592720  50.6863622
  60.6778574  71.9090363  50.0152092  60.0923009  74.2016557  52.1044118
  61.0508082  74.6922265  52.1855911  58.9693903  74.8659301  52.5998382
  59.1306708  75.7431368  53.2089407  54.1779426  75.8407233  52.5005830
  53.3679515  75.5209922  53.3728006  54.0912151  77.0138851  51.8949380
  54.7276300  77.2385057  51.1445044  53.1110219  78.1424390  52.1733916
  53.2597229  78.3534385  53.2328836  53.5606108  79.3178070  51.3850833
  54.6228039  79.4332203  51.6041871  53.4779033  79.1124992  50.3177515
  52.7262787  80.5659757  51.6497224  51.6597309  80.3785600  51.5321257
  53.0639669  81.1062030  52.9993728  54.1416788  81.1739765  53.1465349
  52.7713830  82.1555482  52.9700268  52.6873432  80.5331629  53.8455269
  53.1012822  81.5259881  50.4920322  54.1556311  81.7901530  50.5686563
  52.8308044  81.0891132  49.5313818  52.4793473  82.4069699  50.6501528
  51.6875219  77.7759313  51.9055545  50.7701996  78.1284623  52.6487077
  51.4386336  77.0939828  50.7825131  52.2010498  76.6564088  50.2851766
  50.1388718  76.5820764  50.5189300  49.3667277  77.2271270  50.9371731
  49.9175135  76.4696022  49.0104317  50.6436164  75.8747591  48.4558786
  48.9040099  76.0896730  48.8891168  49.8750304  77.8111688  48.3401628
  50.9760580  78.3178751  47.8413873  51.8488331  77.8224060  47.9525399
  50.7797533  79.6699587  47.7307775  51.6068425  80.2671249  47.3757198
  49.5186091  80.0088683  48.0163271  48.9714641  78.8157989  48.4531195
  48.0016217  78.6772791  48.9061008  49.8937260  75.1928997  51.2296829
  48.8133156  74.9786877  51.6699606  50.9231601  74.3289613  51.3131878
  51.8007164  74.6453673  50.9264317  50.7997119  72.9104203  51.6924434
  49.7378142  72.6943718  51.5777689  51.4996756  72.0081474  50.7696651
  51.5388336  72.3623467  49.7387987  52.5446496  71.9082836  51.0620303
  50.8285439  70.6125851  50.6050625  50.8512934  70.0434058  49.4788545
  50.1494647  70.0646587  51.5092335  51.0097217  72.5538752  53.1596845
  50.9083539  71.4414328  53.6435827  51.5427999  73.4714631  53.8862726
  51.8548223  74.2866903  53.3805844  51.8860517  73.3838241  55.3493869
  51.3839286  72.5429199  55.8269427  53.3741248  73.2214728  55.5943006
  54.0252658  74.0571063  55.3392260  53.4170914  72.9897213  56.6594321
  53.9499083  72.0169847  54.8892314  53.3100933  71.1462455  55.0362213
  53.8841513  72.2074563  53.8165784  55.3836486  71.6687943  55.1654784
  55.9561370  72.1098741  56.1329749  55.9954496  70.9104481  54.3214052
  55.4405216  70.4611495  53.6085184  56.8611978  70.5323833  54.6800751
  51.3489039  74.6341440  56.0450897  50.3123525  74.5604764  56.7824846
  52.0238321  75.7711686  55.7985903  52.7594426  75.6801611  55.1122903
  51.8916883  77.0192835  56.5358855  52.1308190  76.8997909  57.5921520
  52.9452840  77.9822840  55.9763822  52.5371602  78.4906491  55.1026329
  52.9517162  78.7838314  56.7147468  54.4126444  77.5636721  55.9450832
  54.9394211  76.4117529  56.6797222  54.3886758  75.7865463  57.3670957
  56.2841640  76.0313743  56.4769469  56.6279396  75.1215647  56.9468019
  57.1829636  76.7843881  55.7012753  58.2194851  76.4843564  55.6428537
  56.6898617  77.8896644  54.9977399  57.3229810  78.3677409  54.2649215
  55.3420454  78.2426943  55.1424154  54.9407421  79.0516780  54.5485374
  50.4446836  77.6611966  56.6113572  49.9994361  78.2251562  57.6301866
  49.6976375  77.4810418  55.5626650  50.0667579  77.0009660  54.7552622
  48.2282451  77.7848871  55.4897120  48.1513772  78.8216406  55.8174123
  47.7072492  77.5759026  54.0496541  48.1852365  78.3143398  53.4058936
  48.0408155  76.6573398  53.5657171  46.2289167  77.7326273  53.7874932
  45.4801462  76.8358965  53.1290725  45.8287526  75.8977470  52.7246098
  44.2002459  77.3995010  53.0093983  43.4087967  76.8848094  52.6488075
  44.0027540  78.5493496  53.6663544  42.8618640  79.3640233  53.8859462
  41.8951977  79.1708971  53.4436019  43.0405909  80.4218016  54.7360125
  42.2533078  81.1534916  54.8384385  44.3032952  80.7310120  55.2790345
  44.5495825  81.5908956  55.8835845  45.3769738  79.9151613  55.0073732
  46.3686026  80.2742553  55.2361935  45.2745688  78.7902028  54.2125861
  47.4708467  76.8317010  56.4970510  46.6914958  77.4049381  57.2576037
  47.8063681  75.5357942  56.5194120  48.5263891  75.0922026  55.9665827
  47.0049839  74.6347779  57.3862072  45.9607463  74.8237445  57.1399848
  47.2700012  73.1651741  57.0866932  46.7590307  72.8737116  56.1680966
  48.3259820  72.9167676  56.9829929  46.8962904  72.2790337  58.1113148
  45.9704934  72.4935226  58.2497395  47.3339726  74.9556875  58.8456306
  46.5031898  74.8972007  59.7369567  48.6034325  75.2564268  59.1463787
  49.3454868  75.0863393  58.4839501  49.0600321  75.8027590  60.4651781
  48.7365301  75.1699848  61.2910118  50.6242470  75.9836480  60.4609141
  50.9767386  76.8532393  59.9067719  50.9027330  76.2213176  61.4875955
  51.4514544  74.8011570  60.0876809  50.9935615  73.4952523  59.7299211
  49.9359582  73.3049664  59.6195879  51.8877439  72.5282756  59.4834198
  51.5047820  71.5267445  59.3442053  53.3202336  72.7677270  59.6353221
  54.1668260  71.7303210  59.3592927  55.0543863  71.8905665  59.6891821
  53.7873318  74.0707089  59.9333683  54.8391606  74.2212651  60.1290081
  52.8595249  75.0859240  60.1249657  53.1581334  76.0724208  60.4451345
  48.3523639  77.1545429  60.8135859  47.5797018  77.1520651  61.7803440
  48.3453896  78.1494442  59.9365820  48.7273663  78.0955135  59.0039115
  47.7137539  79.4209431  60.2766594  48.2535808  79.8601599  61.1142992
  48.0932148  80.4756161  59.2701131  49.1744869  80.4650490  59.1323277
  47.6112522  80.2169174  58.3276403  47.6147192  81.8434804  59.5718918
  48.1992921  82.9100301  60.1409721  49.1878364  82.9903592  60.5681118
  47.3156916  83.9506043  60.2602044  47.5871863  84.8566887  60.6137900
  46.1302148  83.6696114  59.7013808  44.9141458  84.3474940  59.5848813
  44.7946037  85.3248850  60.0315775  43.8168983  83.7183334  58.9486182
  42.7980647  84.0753082  58.9413996  44.0016540  82.4402005  58.3153033
  43.1280070  81.9833358  57.8773655  45.2152400  81.7219364  58.4907704
  45.2010434  80.6736381  58.2311360  46.3000664  82.3142465  59.2158803
  46.1477098  79.4592989  60.6166649  45.7016129  80.1925844  61.5038205
  45.4159795  78.5552726  59.9588837  45.8349959  77.9484015  59.2683371
  44.0479564  78.3447045  60.3734183  43.5339458  79.2974157  60.5038037
  43.2249090  77.6086729  59.2522151  43.5868900  76.6646976  58.8439868
  42.2816329  77.2829587  59.6889637  42.9679115  78.4432650  57.9856187
  41.9746934  79.0875549  57.9371707  43.7553625  78.3503230  56.9685879
  43.5509058  79.0119112  56.2314234  44.6133550  77.8193901  56.9689714
  44.0075557  77.6092489  61.6665347  43.1956907  77.9930654  62.5398646
  44.7153394  76.4823334  61.7537864  45.4159085  76.2519952  61.0621888
  44.5428377  75.5638406  62.9118741  43.4744922  75.3543050  62.9588815
  45.1838524  74.1634394  62.5182595  46.2093802  74.3507866  62.2018615
  45.1078202  73.5589891  63.4218517  44.3773069  73.3510343  61.4683989
  43.3388744  73.3554443  61.7986755  44.4949401  73.8632286  60.5148448
  44.9167647  71.9767770  61.2331689  45.9345393  72.0484724  60.8485395
  45.0718800  71.6145328  62.2497481  44.0309335  71.0971234  60.3685039
  43.0319465  71.2444635  60.3713068  44.4118968  70.1140799  59.6311034
  45.6172972  69.6827864  59.6925579  46.2169201  70.1570387  60.3529692
  45.9023425  68.9316484  59.0807941  43.6100273  69.5750743  58.7891175
  42.6148836  69.6852488  58.9222927  43.9585914  68.8494965  58.1775213
  45.1015389  76.0742600  64.2340704  44.6384261  75.6056060  65.3043901
  46.0962130  76.9794759  64.1976218  46.3397280  77.3210287  63.2785243
  46.8966816  77.3136733  65.3018378  46.4014069  77.1460237  66.2596231
  48.2173474  76.4814526  65.3052299  48.8290497  76.6655371  64.4224479
  48.7900247  76.7438484  66.1963787  47.9513637  75.0125836  65.4462321
  47.5867676  74.5088136  66.7309166  47.3830499  75.2125239  67.5243351
  47.3986757  73.1155543  66.9662695  47.0930484  72.7710165  67.9426396
  47.5842756  72.2279816  65.8528004  47.5962716  71.1658733  66.0543919
  47.9893371  72.7307250  64.5915359  48.2521194  72.0300561  63.8133203
  48.2018063  74.1030028  64.3554584  48.5416709  74.5297704  63.4236647
  47.3499148  78.7407329  65.3206968  47.9686774  79.1708573  66.2687336
  47.1680760  79.5362582  64.2484454  46.7346300  79.0711352  63.4643776
  47.4490072  80.9911025  64.2090547  46.7322432  81.3790875  63.4870415
  47.2160198  81.3695127  65.2050123  48.8654259  81.3650916  63.7281843
  49.5389734  80.4825282  63.1524662  49.3475347  82.6002239  63.9593193
  48.6216135  83.7636560  64.4373706  48.6799362  83.7075303  65.5238044
  47.6435236  83.8287162  63.9610511  49.4885604  84.9549275  63.9558838
  49.3886563  85.9148929  64.4623771  49.2176473  85.0890202  62.9091420
  50.8801714  84.4001447  64.0205043  51.1389122  84.5424455  65.0701618
  51.5352728  84.9437504  63.3400662  50.7573577  82.9451202  63.6131638
  50.8948936  82.8776922  62.5347862  51.9079784  82.1668926  64.2194310
  51.8596273  81.6226694  65.3039665  53.0734955  82.2454776  63.5450333
  53.1330543  82.7332920  62.6629983  54.2181535  81.3661428  63.8353531
  54.3633021  81.3032195  64.9137842  53.9796089  80.3367473  63.5707543
  55.4717124  81.7398595  63.1373568  55.5223361  82.8411937  62.5528175
  56.5663959  81.0419928  63.3080151  56.4208199  80.1595313  63.7780783
  57.9201154  81.2756136  62.9371381  57.9282030  82.1024128  62.2273820
  58.6808798  81.8289808  64.1125593  58.3460154  82.8389408  64.3477075
  58.4267229  81.0929963  64.8748565  60.2168594  81.8640235  64.1162728
  60.5730229  80.8355542  64.1689175  60.8460463  82.5424590  62.9091941
  60.9261291  81.8012442  62.1144278  60.2010313  83.3681236  62.6133518
  61.9017297  82.8046651  62.9935888  60.6653011  82.6406652  65.3838570
  61.7476355  82.6334737  65.5221377  60.2479497  83.6442434  65.4673537
  60.2428106  82.0612790  66.2038584  58.4768304  80.0361887  62.2571650
  58.2548020  78.9636467  62.8148262  59.1563858  80.1930819  61.1419919
  59.2998282  81.1457904  60.8390269  59.7213239  79.1518871  60.3120080
  59.4938466  78.2106190  60.8142574  59.0456435  79.1423406  58.8701610
  59.0369443  80.1060884  58.3624056  59.7813659  78.1051911  57.8764841
  59.0967588  78.1350631  57.0284312  60.7840621  78.4308353  57.6038887
  59.8036873  77.1389161  58.3802334  57.5533853  78.6565225  58.8951008
  56.9972123  79.3000679  59.5773955  57.0274524  78.7409492  57.9441099
  57.6128231  77.6463816  59.3011150  61.1943038  79.3473586  60.1310931
  61.5614950  80.3878643  59.5870117  62.0343638  78.4167451  60.5313201
  61.6443791  77.5372649  60.8364030  63.4709488  78.6954691  60.7312836
  63.6735163  79.7668519  60.7571949  63.9531331  78.0902962  62.0956695
  63.8196409  77.0092104  62.1200519  65.4951898  78.4837694  62.1735088
  66.0316994  78.1932411  63.0778062  66.0931365  78.1868813  61.3117297
  65.5835721  79.5661988  62.2624811  63.1154093  78.6857232  63.2418260
  63.0741977  79.7709285  63.1439889  62.0766405  78.3869833  63.1061948
  63.5527938  78.1850723  64.5466963  63.0904164  77.2027248  64.6345636
  64.6368102  78.2157666  64.6657979  63.2139999  78.6794119  65.4562110
  64.1810578  78.0934960  59.5926532  64.3427504  76.8478455  59.5723432
  64.6543799  78.9300870  58.6354664  64.5670234  79.9224264  58.8047483
  65.3879547  78.4111115  57.4493831  65.1086165  77.3804768  57.2255808
  65.1212930  79.2801508  56.1671346  65.1642543  80.3454172  56.3980518
  65.8924624  79.0326711  55.4378572  63.8592080  78.9878814  55.4787386
  63.6737697  77.8134228  54.6804569  64.5698315  77.2123388  54.6268909
  62.4811009  77.4586557  54.1127647  62.2419218  76.5501206  53.5800515
  61.3862275  78.3515649  54.2926994  60.2616952  77.9594975  53.7575665
  59.6340017  78.6799772  53.8455878  61.5392592  79.5182505  55.1214834
  60.6480131  80.1106391  55.2727950  62.7828593  79.8751450  55.7042579
  62.8080804  80.8629456  56.1433874  66.8794522  78.5084452  57.8666279
  67.5727365  79.5481051  57.6840595  67.3873151  77.5186876  58.5564686
  66.7581441  76.7355761  58.6564150  68.6850570  77.6032506  59.2934518
  68.7176439  78.4192489  60.0157820  68.9491630  76.2221022  60.0024187
  68.9683460  75.5017033  59.1851377  69.9263737  76.1407589  60.4790313
  68.0897484  75.8579098  61.1120526  66.9465277  75.1112938  61.1583990
  66.5772326  74.4621578  60.3780551  66.4392189  75.0570818  62.4080885
  65.7371473  74.3917402  62.7010680  67.2432517  75.7461298  63.3185407
  67.2703671  75.8644131  64.7649586  66.5671767  75.4113408  65.4484231
  68.3296983  76.6044025  65.3271857  68.5010329  76.6746167  66.3916989
  69.2236142  77.2945477  64.4867013  70.0004962  77.9322293  64.8809265
  69.1390488  77.1231536  63.0801300  69.8737097  77.6622909  62.4993078
  68.2202513  76.3159169  62.4720543  69.8880543  77.9520189  58.3883418
  70.8011450  78.6703802  58.7944408  69.8327522  77.5849209  57.1218621
  69.0461774  77.0203860  56.8352502  70.7737215  78.0205374  56.0487857
  71.7651797  78.1144952  56.4912149  70.6216727  76.9445351  54.9554558
  69.6309873  77.2009322  54.5831964  71.2595366  77.1159328  54.0877609
  70.8738467  75.4575230  55.2812537  71.8656427  75.1186769  56.3034014
  72.2425623  75.9020419  56.9451148  72.1916350  73.7594334  56.4701081
  72.9492463  73.4636014  57.1800246  71.6458865  72.7997657  55.6980255
  72.0055812  71.5084920  55.8046550  72.5856924  71.4471590  56.5668488
  70.5618264  73.1510189  54.7676895  70.0878856  72.4160692  54.1329660
  70.2345323  74.5123088  54.6152349  69.4402873  74.7769236  53.9342400
  70.5768007  79.3752449  55.4371791  71.3496283  79.7579241  54.5626323
  69.5874307  80.1422585  55.8825499  69.0347122  79.8247547  56.6676478
  69.1129367  81.2950689  55.1973246  68.6557694  82.0062989  55.8870137
  69.8588621  81.9404930  54.7345330  68.0171145  81.0163607  54.1301519
  67.5633844  79.8893606  53.8604024  67.5467881  82.1473409  53.6196466
  68.0181614  83.0097820  53.8506892  66.3872634  82.3189921  52.7137484
  66.2254967  81.4958307  52.0179748  65.1372050  82.2848850  53.5618713
  64.3077084  82.3260004  52.8560704  65.2608275  81.3837675  54.1612950
  64.9367968  83.5045658  54.4833742  65.6062230  83.5867473  55.7383147
  66.2967256  82.8314554  56.0815338  65.4228211  84.7633667  56.5191531
  65.8409269  84.9667717  57.4940438  64.6046659  85.7980039  56.0339305
  64.5122939  86.7264866  56.5779086  63.8465662  85.6649768  54.8510228
  63.1973369  86.4634532  54.5230551  64.0304086  84.5232126  54.1245804
  63.4534733  84.4278459  53.2164273  66.6153816  83.5568704  51.7689531
  67.6405907  84.2669646  51.8985198  65.5890238  83.9011119  50.9224281
  64.9986682  83.1465233  50.6011800  65.7211825  85.0870351  50.0685252
  66.7391076  85.4375390  49.8989301  65.1062892  84.7151032  48.6835620
  64.0916754  84.3677790  48.8793854  64.9816170  85.8488354  47.6602395
  65.9249736  86.2078370  47.2476972  64.4927262  85.3996415  46.7964087
  64.4083533  86.7033149  48.0205500  65.8262995  83.4369136  48.1140241
  66.9046013  83.5935025  48.1202944  65.6511066  82.6184245  48.8114622
  65.4359656  82.9254388  46.7469462  64.3601371  83.0905311  46.6729620
  65.9465727  83.6216129  46.0810099  65.7016848  81.8690109  46.7013914
  65.0406597  86.2785867  50.7710766  63.9381073  86.2425761  51.3042197
  65.7706476  87.4576715  50.7132261  66.7039930  87.4172640  50.3298939
  65.3759086  88.6077659  51.5530141  65.3862194  88.2773753  52.5912958
  66.3427398  89.7799790  51.4451633  67.2622395  89.3877342  51.8767352
  66.4245125  89.9251359  50.3685665  66.1422281  91.1989866  52.0069235
  67.0785562  91.7251385  51.8214944  65.4235494  91.7331768  51.3838667
  65.7702349  91.3664072  53.4710838  66.4394048  90.9212427  54.4118076
  64.6171422  91.9110285  53.7246876  64.0642404  92.2391308  52.9446379
  64.3512066  92.0889493  54.6811683  64.0088733  89.1957648  51.2374818
  63.2965096  89.4828020  52.0958370  63.4950057  89.0966303  49.9850116
  64.0185163  88.5021131  49.3594215  62.1257300  89.6936111  49.5783129
  62.0380159  90.7727354  49.7026144  61.9435255  89.4347319  48.0646623
  61.9115016  88.3543148  47.9324154  61.0095132  89.9388525  47.8137093
  63.1032008  90.0543034  47.2907234  64.0068155  89.4955665  47.5346732
  62.9368966  89.8239348  46.2385090  63.2621094  91.5220312  47.3315168
  64.1085171  92.0907556  46.5937989  62.4550532  92.2326972  48.0150065
  60.9661689  88.9539224  50.2267216  59.9401846  89.5898042  50.5614179
  61.1324386  87.7063565  50.6255743  62.0106981  87.2878637  50.3553483
  60.1404152  86.7785057  51.1526070  59.1939819  86.7308744  50.6143884
  60.7460016  85.3466563  51.2973917  61.6171405  85.2909789  51.9502883
  59.9368231  84.7666882  51.7404461  61.0825616  84.8162645  49.8828133
  61.8549799  85.4032722  49.3862039  61.5176438  83.3663995  50.1870777
  60.7766812  82.8500936  50.7959715  61.6215111  82.8206865  49.2500078
  62.5184408  83.3750763  50.6212043  59.7507982  84.6534681  49.0066070
  58.9834786  84.0640797  49.5090759  59.3647439  85.6459929  48.7711549
  60.0336023  84.1504736  48.0829061  59.7817287  87.1944801  52.5551401
  58.7035604  86.8015830  53.0957952  60.6039953  88.0173370  53.2364948
  61.4446327  88.1563941  52.6952934  60.4586339  88.5967939  54.6102723
  60.3750647  87.7611237  55.3036016  61.7139867  89.3847609  54.9970154
  62.5982520  88.9405058  54.5417996  61.5834923  90.3261465  54.4646459
  61.8407014  89.5264845  56.5057194  62.7304987  90.2917815  56.9827302
  61.1053486  88.8939828  57.2439348  59.1281904  89.3955542  54.6326833
  58.5593064  89.5258543  55.7093619  58.4762952  89.7371122  53.4945480
  58.9047241  89.3966160  52.6459987  56.9657073  90.0111678  53.4820310
  56.6562093  90.8410689  54.1177205  56.5343380  90.2558608  52.0116120
  55.4810754  90.5347274  52.0244620  57.1502587  91.0379982  51.5686766
  56.7215632  88.7117605  50.9803497  57.4040307  89.3609330  50.0338143
  56.0370039  88.9682900  54.0932501  54.8412475  89.2928117  54.2737311
  56.4573379  87.7252862  54.4295444  57.3642977  87.4275451  54.1028533
  55.5397982  86.6651869  54.9158524  54.6946178  86.6487606  54.2279671
  56.2729174  85.3250154  54.8693244  57.2804538  85.3941042  55.2782720
  55.8167193  84.6548710  55.5990111  56.1256335  84.6154099  53.5380917
  55.2033480  83.8254111  53.3416222  56.8601225  84.9045095  52.4674021
  56.7048535  84.4704425  51.5682340  57.6209276  85.5678782  52.5071845
  55.0440584  87.0548897  56.3242330  54.0867276  86.4996140  56.7871160
  55.6815491  88.0531795  57.0094783  56.4567000  88.4973803  56.5403593
  55.1990328  88.5524395  58.3208209  55.2380602  87.6905230  58.9882809
  56.1890330  89.5818835  58.8191559  56.2006176  89.7002993  59.9021501
  57.1972613  89.1779387  58.7200948  56.2589633  90.8999721  58.0756611
  56.5335813  90.6661990  57.0481442  55.2961102  91.3930168  57.9383151
  57.3903084  91.8755610  58.4216110  57.4321686  92.5352701  57.5546758
  57.0711973  92.3652098  59.3411050  58.7048166  91.1837003  58.5891042
  58.9768290  90.5235121  57.8766465  59.5184607  91.1309977  59.6477045
  59.3510592  91.6351819  60.8063071  58.4403664  91.9320744  61.1258326
  60.1550093  91.4820942  61.3970273  60.6896072  90.6512846  59.5503377
  61.0101182  90.4342991  58.6173618  61.3005896  90.5599462  60.3485681
  53.7814134  89.0924862  58.3557865  53.0260656  88.8395747  59.3067584
  53.4044234  89.6753573  57.2553358  54.0298309  89.8414212  56.4804492
  51.9406728  90.0507590  57.1384529  51.5852323  90.7434652  57.8991738
  51.8325792  90.9313770  55.9038288  51.9044012  90.2608599  55.0473568
  50.8372133  91.3736728  55.9475476  52.7260834  92.0983020  55.8724841
  53.6766402  91.8534430  55.3970792  52.2981414  92.7606059  55.1188017
  52.8457509  92.9532368  57.1768890  54.0159967  93.3956770  57.4063392
  51.8310327  93.1484417  57.8947929  50.9554974  88.8338878  57.0473486
  49.7784300  88.8627558  57.4539283  51.4377279  87.6917859  56.5319759
  52.4030945  87.5967908  56.2520257  50.6896912  86.4532248  56.5579860
  49.6184250  86.6516023  56.5044781  51.1219639  85.4237406  55.3903163
  52.1483081  85.1330544  55.6159002  50.4356824  84.6012860  55.1870870
  51.4316309  86.0572543  53.9907693  50.5597622  86.6145861  53.6479701
  52.2571505  86.7526575  54.1415328  51.8196666  85.0902837  52.8948431
  52.6837496  84.5377423  53.2620644  51.0438656  84.3556705  52.6732797
  52.1878103  85.8459408  51.6839849  53.1528995  86.0937558  51.5193262
  51.3286474  86.5162889  50.9127013  50.0102038  86.4113249  51.0138358
  49.7004050  85.7753833  51.7354956  49.3386991  86.8524663  50.4022037
  51.7246578  87.1673442  49.8426191  52.7220329  87.1929592  49.6822919
  51.0587684  87.7725614  49.3832158  50.7135331  85.6988626  57.8907689
  50.1383978  84.6172602  57.9024582  51.2993717  86.3485563  58.8808927
  51.6928651  87.2502756  58.6515930  51.4795697  85.9019665  60.2716145
  51.8002107  86.6815010  60.9650100  50.5480731  85.4696573  60.6389315
  52.5498887  84.8782499  60.3013856  52.5779616  84.0824054  61.2733328
  53.5128945  84.9048439  59.3416056  53.5533582  85.7075117  58.7292069
  54.5017735  83.8272924  59.2102856  54.4656586  83.2967237  60.1620664
  54.2123077  82.9081869  58.0110077  54.3451040  83.5472739  57.1377987
  55.2828668  81.7764476  57.7652628  56.2074086  82.2303781  57.4045905
  55.4700823  81.3225120  58.7381584  54.9104939  81.1813132  56.9323988
  52.8481362  82.2569057  58.1395368  52.0598147  83.0104818  58.1377567
  52.8060943  81.6268385  57.2507878  52.6539988  81.3289068  59.3528652
  52.7327062  81.8695362  60.2959055  51.7149875  80.7913421  59.2168545
  53.4305103  80.5640244  59.3495767  55.9122538  84.4524926  59.0170395
  56.2572577  85.0051047  57.9953751  56.7171075  84.4790161  60.0596723
  56.4353886  84.0487004  60.9278226  58.0763530  85.0917302  60.0665289
  58.0794652  85.8963284  59.3298961  58.3193243  85.6528513  61.5012861
  57.4166839  86.2255652  61.7161279  58.3668378  84.8201618  62.2041265
  59.6135015  86.4620634  61.7620160  60.4586094  85.9204051  61.3359432
  59.5311740  87.7718515  60.9433572  59.6652681  87.5811167  59.8791425
  58.5905551  88.3214069  60.9927441  60.1997709  88.5069041  61.3932080
  59.8830761  86.6521267  63.2117851  59.7982740  85.8052153  63.8910390
  60.9615241  86.7569336  63.3271041  59.3353381  87.4766481  63.6698042
  59.1269326  84.0639588  59.6752764  59.0852203  82.9075976  60.1670708
  60.1646830  84.4903296  58.8702278  60.1643711  85.4826165  58.6835179
  61.2760271  83.6938038  58.4408679  61.0636070  82.6648513  58.7331132
  61.3557024  83.8092958  56.8596359  61.6695519  84.8325795  56.6522667
  62.0816956  83.0991222  56.4653322  59.9763827  83.7317929  56.1063987
  59.3789863  84.5900874  56.4151918  60.2122890  83.8176244  54.6118278
  60.8605975  84.6738818  54.4329610  60.6974346  82.9136396  54.2427176
  59.2641295  83.9600720  54.0926090  58.9664822  82.5475226  56.3330126
  57.9239879  82.8217601  56.1687281  59.3124322  81.6436872  55.8309717
  58.9829814  82.3152031  57.3963693  62.5683005  84.0778359  59.1590509
  62.8556984  85.2547663  59.1482268  63.3275509  83.1570506  59.7605618
  63.1215344  82.1777363  59.6259007  64.6619352  83.6079207  60.3161738
  64.9506903  84.5488054  59.8468013  64.5546253  83.9444446  61.8358027
  63.9782781  83.1144212  62.2448138  65.5091403  83.8700794  62.3556498
  63.8218070  85.1899856  62.2146393  62.7987831  85.1499098  61.8425615
  63.8664375  85.2171696  63.3028057  64.4582232  86.4280832  61.6266446
  65.5424876  86.3251552  61.6721255  64.2517649  86.6122248  60.5717983
  63.8731913  87.5903698  62.4876449  62.7955894  87.4840094  62.3602069
  64.2027050  87.4340944  63.5149987  64.2931448  88.8960899  61.9057417
  65.2989508  88.9787971  61.8718637  63.8366851  88.9092605  61.0052885
  63.8980249  89.6620192  62.4324244  65.8431918  82.6879992  60.0376374
  65.6278213  81.5035828  59.8827359  67.0804622  83.3120837  60.0748715
  67.1545121  84.3015951  60.2675830  68.3402370  82.5611414  59.8289223
  68.1022118  81.7862281  59.1010120  69.4110473  83.4257924  59.1523589
  69.0343884  83.6539539  58.1559848  69.4890015  84.3568501  59.7157359
  70.3922405  82.9556154  59.0900184  68.8790013  81.7450639  61.0075260
  69.6870754  80.8541577  60.7677066  68.3590945  81.9651098  62.2220883
  67.6467306  82.6797915  62.2764745  68.5812659  81.1662447  63.4106287
  68.6261971  80.1188394  63.1118522  69.9372371  81.6610961  64.0178900
  70.6300013  81.8953669  63.2083494  69.6111047  82.5307372  64.5869234
  70.6827939  80.4453622  65.1253492  71.9100787  80.9713173  65.1535886
  67.4680881  81.3027105  64.3400141  66.4778150  82.0274591  64.0551200
  67.5267195  80.6282370  65.5070518  68.3074513  80.0172898  65.7025775
  66.5512315  80.6205807  66.5432422  65.5319279  80.5166369  66.1721847
  66.7218899  79.3440092  67.3637268  66.6981975  78.4897977  66.6877607
  67.7052301  79.4875218  67.8121921  65.6434392  79.1177565  68.4682787
  65.7902710  79.7974287  69.6670849  66.5400470  80.5682924  69.7603104
  64.7476641  79.5942231  70.6173770  64.7522705  80.2411088  71.4820485
  63.6415550  78.7813455  70.3794047  62.8921252  78.6160865  71.1374439
  63.6237782  77.9775702  69.2204508  62.9110715  77.1988865  68.9916128
  64.6156527  78.1821021  68.2735433  64.5083973  77.5438295  67.4088536
  66.5981711  81.8941651  67.3152711  67.7273792  82.3870655  67.5500760
  65.4571338  82.5197085  67.6516776  64.1195651  82.0281546  67.3954712
  64.0570139  80.9974498  67.7431261  63.8397978  82.2773692  66.3718065
  63.2107705  82.7969465  68.2974298  63.2575801  82.4416398  69.3267655
  62.1924371  82.7708262  67.9095331  63.8046461  84.1681306  68.0938936
  63.5829378  84.8907812  68.8790900  63.5152950  84.5535403  67.1154733
  65.3078769  83.8865731  68.0292122  65.8003446  84.5136198  67.2862930
  65.9344500  84.1842170  69.3719513  65.7412772  83.4306377  70.3257592
  66.6075591  85.3452163  69.3567589  66.5568478  85.7622327  68.4379795
  66.9523490  86.1555533  70.5681477  67.3534614  85.4889701  71.3311501
  68.1524254  87.1015523  70.3087783  68.3205845  87.7402596  71.1756010
  69.4671335  86.2766497  70.0696257  69.3162448  85.2741861  70.4725156
  69.6679721  85.9557657  69.0478770  70.3409598  86.7163529  70.5509507
  67.8799881  87.8612235  69.1837216  67.4284763  88.6580479  69.4731987
  65.7449171  86.8853134  71.1761875  65.5010810  86.7722007  72.3424874
  65.0342993  87.5498010  70.3236081  65.3015970  87.3988971  69.3607063
  64.1555573  88.6613043  70.6722253  64.3961881  89.2284616  71.5720095
  64.3028280  89.6971449  69.6049335  64.2564062  89.3113632  68.5861251
  63.4120190  90.3207073  69.6811519  65.5070581  90.6070959  69.7368917
  66.6084815  90.1243438  69.6300138  65.3558621  91.8542044  70.0915199
  66.1043769  92.5152455  69.9412062  64.4280705  92.1993603  70.2944981
  62.6873843  88.2591812  71.0008494  61.9316643  89.0890905  71.4891247
  62.4034273  86.9301451  70.9955172  63.2320732  86.3531060  71.0110666
  61.2163233  86.2415407  71.5469991  60.3353777  86.5591550  70.9880699
  61.2874302  84.6988416  71.2552829  61.5122146  84.5032932  70.2059375
  62.3076548  83.9717530  72.2166314  63.2601048  84.5021289  72.2221479
  61.9377072  83.9416743  73.2402070  62.4850808  82.9214080  71.9848286
  59.8634822  83.9814633  71.4219429  59.5096464  84.0305616  72.4503565
  59.2442679  84.5342771  70.7159765  59.8558328  82.4652279  70.9755330
  60.3608927  82.3655385  70.0159803  60.3265129  81.9297439  71.7995301
  58.8274839  82.1042325  71.0154544  60.9393404  86.6453729  72.9294798
  61.7210082  86.4543987  73.9006762  59.7935951  87.2556653  73.1516618
  59.2452868  87.3411552  72.3086348  59.3644927  87.9684952  74.4410073
  60.0023974  87.6702799  75.2735764  59.7012544  89.5044840  74.3994859
  60.7685521  89.7090108  74.3201240  59.0920133  90.4162945  73.3262254
  59.2237767  91.4961130  73.3866275  59.4272695  90.1607929  72.3209094
  58.0143682  90.3334502  73.4713695  59.2629906  90.0092356  75.8109113
  58.1858468  90.1451925  75.9055996  59.6258914  89.4345191  76.6636041
  59.6816596  91.0102501  75.9091168  57.9673647  87.6398692  74.6782816
  57.1321840  87.7705030  73.8347740  57.6277896  87.2780630  75.9275370
  58.3284670  87.3005981  76.6543907  56.1550137  87.0573369  76.3028076
  55.7423836  86.7165282  75.3533384  55.9531083  86.1182800  77.4687401
  54.9079945  85.8142110  77.5195850  56.8213883  84.9050961  77.2365600
  57.8781748  85.1616221  77.1485612  56.7920829  84.1998794  78.0660596
  56.6020855  84.5380336  76.2341443  56.3382348  86.6892569  78.7276543
  57.2849278  86.8036107  78.6095970  55.4122196  88.3867061  76.6277898
  56.0123205  89.3295176  77.1040706  54.1500585  88.4437766  76.4146996
  53.7218599  87.6355834  75.9867152  53.2009882  89.4808772  76.5062076
  53.6597488  90.4645394  76.3952277  52.0233895  89.3604456  75.4674976
  51.4562657  88.4779035  75.7602773  51.3715641  90.2230193  75.6084806
  52.4258988  89.4066180  74.0162928  52.9881632  88.4853387  73.8594197
  51.1514267  89.4047074  73.2393962  51.3782962  88.9510095  72.2731258
  50.4590974  88.7015296  73.7012026  50.7664516  90.4009706  73.0272220
  53.2872876  90.5974417  73.6809391  52.9787580  91.5715161  74.0622232
  54.3085488  90.4974912  74.0474912  53.3773693  90.7569901  72.6065431
  52.5696841  89.5246938  77.9374145  51.6599250  90.2209795  78.2098528
  53.0455686  88.7036486  78.8833694  53.9635282  88.3021863  78.7503763
  52.5198296  88.6346671  80.2774064  51.5235482  88.2673496  80.0349579
  53.3762000  87.5810576  81.0822751  54.3380130  88.0004902  81.3803287
  52.8381641  87.5023858  82.0272376  53.6313662  85.9657444  80.2460864
  54.8331381  86.3975964  79.8555302  52.3279999  89.9634695  80.9954889
  51.4022536  90.1119935  81.7717957  53.2430182  90.8574655  80.9019433
  53.9102503  90.6520069  80.1721535  53.0959241  92.2366662  81.3469475
  53.1585543  92.2887687  82.4336714  54.2515618  93.1009430  80.7983106
  54.1852382  94.0863574  81.2601531  55.2246010  92.7114120  81.0977003
  54.3246451  93.2253763  79.2539243  54.8610346  92.2915596  78.3330124
  54.7784753  92.8252418  77.0855616  55.2189854  92.3697622  76.2108421
  54.1604759  94.0573274  77.1943304  53.8602587  94.7049471  76.4788415
  53.8857786  94.3453481  78.5707746  53.2711919  95.1045160  79.0324219
  51.8333919  93.0006550  80.9582258  51.4018423  93.8815662  81.6938822
  51.1595282  92.7421873  79.8213722  51.4990494  92.0703212  79.1471399
  49.8664164  93.4490088  79.5734156  49.7037519  94.2042244  80.3421390
  49.9088895  94.2901428  78.2516325  49.0316475  94.9216870  78.3889183
  50.7913307  94.9284061  78.2885189  49.8563879  93.4743615  77.0960017
  50.0502075  93.9139537  76.2645892  48.6813937  92.4801045  79.5299819
  47.5462812  92.7719385  79.8983561  48.9542691  91.2020909  79.2052200
  49.8858615  90.9976282  78.8734901  48.0418567  89.9973781  79.2060924
  47.0355449  90.4115384  79.2642882  47.9427738  89.2807528  77.8614662
  48.9310144  88.8348891  77.7448468  46.7416800  88.2071593  78.0371122
  47.1620013  87.4658370  78.7178766  45.8698620  88.6130693  78.5488587
  46.4500536  87.7416584  77.0944977  47.6751529  90.1522910  76.6332902
  46.6083414  90.3737600  76.6682296  48.1383096  91.1147355  76.8511879
  47.9736092  89.3642683  75.3465260  47.4904588  88.3881879  75.2869138
  47.7345847  90.0589948  74.5418047  49.0408535  89.1523302  75.2930670
  48.0430034  89.1645697  80.4832325  48.8856059  88.3197919  80.7910271
  47.1070976  89.5125775  81.3697391  46.5291005  90.2901133  81.0815265
  46.9892286  89.0272356  82.7329038  47.9987056  89.0290209  83.1479736
  46.1306003  89.9707019  83.6872669  46.5341303  90.9730788  83.8259934
  45.1587144  89.9958844  83.1942956  46.0838410  89.5924197  84.7084775
  46.5248144  87.5821419  82.9000791  46.8757383  86.8378704  83.8639413
  45.6631204  87.0979368  82.0537412  59.4390325  70.3493040  61.8578126
  26.9067922  24.6734144  67.5501334  27.4776121  24.0438144  67.9971966
  28.1414914  23.1567313  67.1208639  27.4718828  22.3348017  66.8671595
  28.9510940  22.6232320  67.6183207  28.8431493  23.8315046  65.8799541
  29.5808258  23.1022210  65.5474186  27.8196203  24.0654112  64.9409131
  28.1439495  25.2430202  64.2664380  28.9993489  25.0181601  63.6305772
  26.9743205  25.7064269  63.5305385  26.0184112  26.6812826  63.7259251
  26.0103706  27.2592809  64.6389762  25.0607787  26.8016266  62.7690744
  25.3668674  25.7451529  61.9412151  24.8645743  25.2207723  60.7018149
  23.7449529  25.6405047  60.1085962  23.5932539  25.2074214  59.2099637
  23.1125979  26.3266187  60.4979980  25.4342906  24.2687158  60.0515128
  26.5530895  23.7550889  60.5743601  27.0607561  22.9859241  60.0110608
  27.0560126  24.0334327  61.7704187  26.4911925  25.0613976  62.3775013
  29.5018650  25.2128248  66.1441208  29.6128056  25.4245220  67.2075711
  28.5804224  26.1842312  65.4254510  27.7365660  26.4994771  66.0405473
  29.1381804  27.0550108  65.0822835  30.7215654  24.9081747  65.4334315
  32.0514470  25.7312980  65.7928158  32.6590269  25.1640188  67.0284966
  31.7579638  27.1892532  65.7452736  33.0886086  25.4689204  64.6174776
  33.3377264  24.2292221  64.1118746  32.8423322  23.4721535  64.7191814
  34.4040614  24.0036293  64.0988843  32.8521126  24.0892371  62.5818545
  32.9413316  23.0671233  62.2140277  31.5424889  24.6559415  62.3950989
  31.5270057  25.0824179  61.0020332  31.5935581  24.1661091  60.4154976
  30.3082153  25.9147894  60.7189120  29.8736640  26.8956667  61.5710105
  30.4445205  27.0769332  62.4702037  28.8027976  27.6344527  61.2168874
  28.2906897  28.7038387  62.0929063  28.7133647  28.6734771  63.0970084
  28.4789829  29.6568267  61.5987965  27.2142232  28.5750693  62.2081256
  28.0604254  27.3647501  60.0009429  27.1699265  28.0911308  59.6249420
  28.4555081  26.3364232  59.2432678  27.8868587  26.0768416  58.4489118
  29.6258973  25.6262170  59.5014095  29.9097433  24.7104334  58.7258338
  33.6718930  25.0722179  61.6939548  34.4554506  25.4804434  62.3325145
  32.7600669  25.9933336  61.0147486  32.6750619  26.9224657  61.5793739
  33.0315081  26.1723856  59.9746072  34.3760738  24.2517386  60.8038116
  35.8544490  24.6879198  60.3166537  36.8403474  23.7503839  60.8926482
  36.1161847  26.1460516  60.5354233  35.7143102  24.3797579  58.7774356
  35.6068302  22.9738546  58.2654386  35.0713394  22.3660199  58.9947228
  36.5621289  22.5568819  57.9456884  34.7240915  22.9643610  57.0310954
  34.6483689  21.9295385  56.6975289  33.4517539  23.5119634  57.1778827
  33.2665149  24.5195392  56.1290415  32.6368215  24.0604314  55.3668097
  32.4034686  25.7183752  56.5897642  32.6802837  26.8386065  57.3994779
  33.6048160  27.0605553  57.9110175  31.7314905  27.7728113  57.3980807
  30.7425771  27.2006145  56.6109937  29.3838910  27.5537897  56.3182233
  28.7251365  28.5683505  56.8609736  27.7686540  28.7506492  56.5928517
  29.1340654  28.9415730  57.7065167  28.7184083  26.9226670  55.4010238
  29.2288431  25.7909409  54.9530445  28.6927877  25.2904171  54.1599155
  30.4170266  25.1983702  55.3003280  31.0811564  25.9493282  56.1632902
  35.5566520  23.7101678  55.9428706  36.5039257  23.9903353  56.4031519
  34.6456722  24.9563938  55.7194489  34.9066181  25.8410374  56.3003120
  34.6071060  25.0682537  54.6360792  35.6496827  22.8051762  54.8361468
  36.9886227  22.5945337  53.9534009  36.9337875  21.2273731  53.4282306
  38.1688658  23.0450846  54.7658891  36.6468102  23.6829942  52.8922558
  35.6323035  23.3955277  51.9134068  34.7352870  23.0951716  52.4545154
  35.9869115  22.5644629  51.3040371  35.3200440  24.6446893  50.9911637
  34.8282995  24.2109299  50.1198743  34.3694013  25.4855074  51.5655968
  34.6371991  26.8911896  51.3997324  34.1863811  27.1473706  50.4410456
  33.9395993  27.6227652  52.4951458  34.4519182  28.0302002  53.7126096
  35.4614048  27.8189662  54.0334413  33.6406775  28.7108369  54.4996644
  32.4421631  28.8071654  53.6764481  31.1808364  29.2968688  53.8263099
  30.9214994  30.0390689  54.9365154  30.0415548  30.5361644  54.9317581
  31.6190328  30.0631486  55.6646845  30.2273603  29.2292434  52.9442604
  30.5003903  28.4903357  51.8226241  29.7485831  28.4111155  51.0515261
  31.6535352  27.9664170  51.5661227  32.6315448  28.1432367  52.5116365
  36.4341568  25.5444058  50.5365785  37.3895343  25.1081931  50.8303222
  36.1830916  26.7932683  51.3612759  36.5039194  26.5861704  52.3811705
  36.7881866  27.6397170  51.0366614  36.3752769  25.7168578  49.1282396
  37.2865321  26.8003639  48.2413487  37.4467259  26.3084977  46.8617522
  38.3382611  27.3611750  49.0824689  36.1995116  27.9820319  48.2568369
  34.9427667  27.8555243  47.5439351  34.5300013  26.9107354  47.8986245
  35.1852965  27.7260899  46.4882614  33.9904971  28.9904953  47.7645173
  33.0029355  28.8123994  47.3404891  33.7115988  29.1623397  49.1190886
  33.4904966  30.6250907  49.2617252  32.5498851  30.9415871  48.8131397
  33.5460866  31.1067161  50.6855878  34.5886471  30.8343389  51.5199063
  35.3227712  30.2253568  51.0125310  34.6925992  31.2553821  52.8279203
  35.9256610  30.8470641  53.6279409  36.2507724  31.8712852  53.8067469
  35.5585232  30.3950171  54.5508393  36.6818398  30.2427210  53.1237385
  33.6534638  32.0640840  53.4611886  33.5763374  32.5039352  54.6328543
  32.5804719  32.2977558  52.5927406  31.7597410  32.7322230  52.9915951
  32.4850508  31.7987173  51.2590958  31.4696159  32.0441643  50.6238677
  34.5613119  30.3098009  47.1957773  35.6049480  30.1903181  46.9058639
  34.6690706  31.2380185  48.4244404  35.6037992  31.1794007  48.9818975
  34.5171616  32.3000362  48.2314119  33.6571984  30.7886861  46.2636230
  33.9030951  32.0416619  45.3238270  32.9832389  31.9720755  44.1709218
  35.3389565  32.2443558  45.0540748  33.5774692  33.3760231  46.0926703
  32.2972626  33.8067431  46.5700050  31.8715191  32.9250060  47.0484725
  31.6693122  34.0670447  45.7183188  32.4148757  34.9862647  47.5757911
  31.4107193  35.4047932  47.6545362  32.7578418  34.6491081  48.9427241
  32.8816533  35.8510279  49.6009949  31.9089550  36.2741210  49.8537243
  33.4328622  35.5942478  50.9333799  34.6047548  34.9570180  51.2584334
  35.2589265  34.5905831  50.4819420  34.8992920  34.8328280  52.4860973
  33.7940583  35.6112166  53.0555133  33.3853030  35.9721637  54.3794202
  33.9380080  35.5917944  55.5442388  33.2414983  35.7378594  56.2608672
  34.5844072  34.8161179  55.5915890  32.3366762  36.7395048  54.6310759
  31.7191785  37.2632222  53.6068212  30.8040364  37.7657983  53.8863035
  31.8529220  36.9776774  52.2896975  32.9272805  36.0712702  52.0864618
  33.3593172  36.1268540  47.2440103  34.2257191  35.6982080  46.7391734
  33.6876189  36.7538754  48.6517700  34.7292108  36.4560220  48.7739655
  33.4530420  37.8082857  48.8014981  32.6916884  37.1135917  46.3233369
  33.4229422  38.4238149  45.8575622  32.8961510  38.8221590  44.5169045
  34.9051527  38.4034292  46.0768553  32.9012989  39.4575744  46.9502879
  33.6375157  40.6064049  47.3320985  33.4600050  41.4464621  46.6588460
  34.6725952  40.2983182  47.4735520  33.1541168  41.1202007  48.7421018
  32.0745837  41.2112121  48.6253706  33.4788571  40.1766545  49.7815817
  33.3206478  40.9215740  50.9334019  32.2599601  41.0532742  51.1446452
  33.9534590  40.2716600  52.1302773  34.9180348  39.2587312  52.0702543
  35.3193580  38.9148563  51.1266740  35.5264336  38.9699029  53.1550262
  34.7457315  39.6650858  54.1355980  34.9699584  39.8120215  55.5542287
  35.7701823  39.2193669  56.3366884  33.9856030  40.5911497  56.1418074
  34.1162878  40.8283973  57.1144924  33.0977493  41.3738079  55.3928241
  32.3631585  42.3149013  55.9766644  32.2803431  42.2214842  56.9801319
  31.7878256  42.8771334  55.3660434  32.9824237  41.3836078  54.0489227
  33.8129924  40.4624101  53.4833421  33.7202142  42.4670807  49.1454006
  34.6942913  42.6200490  48.6787331  34.0680631  42.1920074  50.6495298
  35.1299981  41.9669217  50.7470673  33.6264404  42.9512831  51.2948683
  32.7465867  43.5068589  48.8990983  33.0141884  45.0668333  49.1194978
  31.8712908  45.7743510  48.4702717  34.3671623  45.3387663  48.5581644
  32.8870531  45.3952308  50.7525724  31.6249346  45.2236658  51.3828012
  31.3811123  44.1630686  51.3376098  30.8659366  45.7412409  50.7938809
  31.6419576  45.6289956  52.9013821  30.6106831  45.7741947  53.2240958
  32.3047559  44.5839135  53.6197746  33.2863349  45.2240089  54.4449271
  32.9928863  45.4675293  55.4661669  34.5110534  44.2841998  54.5703555
  35.2852007  43.6885419  53.5925766  35.0145306  43.7695773  52.5501775
  36.3562256  43.0479348  54.0210965  36.1620580  43.1861801  55.3804435
  36.8715591  42.6502882  56.5195379  37.9672259  41.9237205  56.5179397
  38.2916903  41.4958289  57.3739658  38.4303152  41.6475172  55.6638161
  36.5114295  42.8165755  57.7891115  35.4366982  43.5878451  57.9555140
  35.0579500  43.6091321  58.9676828  34.7355793  44.2153046  57.0497586
  35.1142947  43.9532632  55.7500237  32.3821867  47.0038659  53.0653742
  32.5059433  47.5113556  52.1076522  33.7007153  46.4788452  53.6874598
  34.3780989  46.1513590  52.8994272  34.2024912  47.2128842  54.3175595
  31.5544932  47.7782576  53.9280486  31.8721654  49.2578765  54.3244678
  30.6522447  49.9133949  54.6872543  32.7760775  49.8854139  53.3008596
  32.7163267  49.0428643  55.6830887  32.1144507  48.7553116  56.9031951
  31.3700871  48.0202863  56.5960833  31.5245525  49.6321746  57.1708543
  33.1452746  48.4120634  58.0298773  32.5781316  48.1275535  58.9158530
  34.0644186  47.3358220  57.7075330  35.2659301  47.4949322  58.3907811
  35.2488052  47.0882934  59.4028426  36.4465320  47.0174109  57.5972858
  36.7031908  47.3326655  56.2562054  35.9987062  47.9861360  55.7619304
  37.7156583  46.7070015  55.6194794  37.8948529  47.0535260  54.1660046
  38.0568890  46.1345172  53.6033136  37.0414933  47.5198505  53.6709684
  38.7743956  47.6943091  54.1055759  38.6113686  45.7369550  56.2887325
  39.5329445  45.1102949  55.8358209  38.3287653  45.5255584  57.6138638
  38.9031277  44.9022866  58.1638366  37.2835563  46.1683214  58.3141871
  37.1653265  45.9548934  59.5145738  34.0844451  49.5804902  58.2906598
  34.2578650  50.1277393  57.3639015  35.4706859  49.0343880  58.6850073
  36.2261940  49.5079388  58.0576899  35.8517163  49.2046828  59.6915069
  33.5636796  50.4745048  59.2888096  34.1508407  52.0176708  59.3872901
  33.2368309  52.6663304  60.3243348  34.2495560  52.5498865  58.0152946
  35.6658085  51.9285943  59.9829681  35.8903572  51.4362945  61.2497963
  35.5008362  50.4271885  61.3866119  35.4269093  52.0897284  61.9885381
  37.3271283  51.2421750  61.6298652  37.2723734  51.2994486  62.7165609
  37.8171387  50.0207850  61.1410419  39.0906323  50.2261224  60.5241936
  39.8651796  50.2765663  61.2899233  39.4427447  49.2036026  59.4859372
  39.1988718  49.0659119  58.1364554  38.4730811  49.7308565  57.6902989
  39.9019546  48.1192310  57.5059137  40.6444317  47.5385698  58.5597245
  41.5984183  46.5127486  58.4408742  41.9237259  45.7523037  57.4976089
  42.2814788  46.4335963  59.6342719  42.9489754  45.6841648  59.7597701
  41.9043754  47.1055371  60.7697695  42.5762632  46.7079766  61.8215044
  43.4314163  46.1731285  61.7527965  42.4985946  47.1942729  62.7024201
  40.9179553  47.9924015  60.9119240  40.3856482  48.2116865  59.7333663
  38.3012701  52.3036913  61.1464191  37.8207742  53.2292472  60.8307739
  38.8735349  51.5976379  59.9601832  38.1860661  51.4116334  59.1337438
  39.8666036  51.9106069  59.6368862  39.3108689  52.4686745  62.1159539
  40.6133591  53.3988054  62.0021648  41.0570748  53.6956107  63.3946277
  40.2328414  54.5401458  61.0775906  41.7365702  52.5188307  61.3053475
  41.9498107  51.1874393  61.8419139  41.7835788  50.5189201  60.9964578
  41.2161315  50.8754810  62.5833030  43.2514129  51.0297855  62.6619516
  42.8159802  50.8258073  63.6404532  44.0748189  49.9459429  62.3363739
  44.9891547  50.4807985  61.3537587  45.9538835  50.0924818  61.6820354
  44.6418735  49.8440973  60.0473257  43.7297055  50.2162915  59.1071614
  42.9999892  51.0042209  59.2210847  43.8251126  49.4969429  58.0002413
  44.8067712  48.5734869  58.2743587  45.3863602  47.4804110  57.5129438
  45.0771048  47.1224459  56.2308661  45.4791106  46.3140426  55.7773583
  44.2435671  47.5763991  55.8859234  46.4497600  46.8249593  57.9878048
  46.8139869  47.1146962  59.2472318  47.7021480  46.5520975  59.4929907
  46.3070567  48.0074641  60.0845306  45.3302358  48.7562056  59.5147218
  44.2463565  52.2015454  62.6849270  43.6552093  53.1185465  62.6743950
  44.8993990  51.9667627  61.3512566  44.3087794  52.3402943  60.5151396
  45.8977239  52.3917083  61.2427866  45.0411434  52.0790830  63.8442297
  46.3798930  53.0244327  64.0638032  46.8032049  52.9443872  65.4349081
  46.1274319  54.3118859  63.4455534  47.4998721  52.2760211  63.1431964
  47.9005092  50.9885973  63.4944541  47.1671114  50.1829055  63.5557755
  48.4043192  50.9994212  64.4609013  48.8883506  50.4643551  62.3315815
  49.1735541  49.4865322  62.7230560  48.2863604  50.3108560  61.0493979
  49.2300011  50.1961964  60.0449815  49.7213274  49.2283649  60.1495403
  48.6704019  50.3186955  58.6958874  47.7441719  51.2606054  58.4907710
  47.4796481  51.9294307  59.2961335  47.0543167  51.2898547  57.3876258
  46.0778461  52.4251771  57.3469645  45.2857523  52.0549822  56.6973230
  45.5788499  52.6288049  58.2955152  46.5827374  53.2979243  56.9306244
  47.2672906  50.2762624  56.3119424  46.5774729  50.2078578  55.2665356
  48.3344582  49.4694329  56.5356569  48.4098722  48.7030608  55.8816718
  49.0481424  49.3911168  57.7138397  49.9374138  48.5390024  57.8734276
  50.1177070  51.3349701  61.9707088  49.9448252  52.3823794  62.2168200
  50.2089925  51.3028594  60.3852783  49.9167662  52.2822361  60.0078845
  51.1950156  51.0613678  59.9884088  51.3092885  50.9399338  62.6232981
  52.7869494  51.5851505  62.3413272  53.5486227  51.2597979  63.5319994
  52.6919924  53.0338734  62.0181274  53.5680050  50.9530259  61.1324650
  53.8664487  49.6043292  61.0620496  53.0890640  48.9531624  61.4594322
  54.6187936  49.4604311  61.8379385  54.3021582  49.1386207  59.6762192
  54.6206290  48.0962036  59.6733957  53.1106975  49.2317323  58.8660374
  53.6064057  49.3578414  57.5634968  53.9233675  48.3564004  57.2770756
  52.5545926  49.7031475  56.5598481  51.9509402  50.9237373  56.6837168
  52.1235272  51.5399891  57.5547996  51.1352419  51.4045600  55.6945274
  50.6565947  52.3723006  55.7389794  50.9436163  50.4759359  54.5943134
  50.0542228  50.7870519  53.7172028  49.8688118  50.2243908  52.8985085
  49.3629824  51.4869232  53.9436222  51.3884095  49.2290920  54.5039779
  52.3565969  48.9481684  55.3773553  53.0187098  47.9693818  55.0750752
  55.4137344  50.0098554  59.0612334  55.5756515  50.8711585  59.7064976
  54.7684287  50.3395761  57.6843798  54.3596367  51.3465966  57.7698481
  55.4736673  50.3409545  56.8534962  56.5960738  49.2692001  58.8849687
  58.0109539  49.8422165  58.4670172  59.0074864  48.8961674  59.1035134
  58.0328356  51.2775102  58.7992085  58.0360201  49.6524200  56.8377662
  58.2892269  48.3422112  56.2757226  57.6456284  47.5893449  56.7298894
  59.3384316  48.1323720  56.4861029  58.1385496  48.3662327  54.7287522
  58.3755401  47.3475622  54.4189058  56.7858561  48.6971769  54.4574031
  56.6771185  49.1570062  53.1056190  56.6364916  48.2840004  52.4538189
  55.4517096  49.9533448  52.8786389  54.9876726  50.8444797  53.7709607
  55.4592823  50.9960859  54.7308116  53.8091389  51.3361359  53.4382766
  53.6028517  50.8938245  52.1531575  52.6240464  51.0972017  51.1158629
  51.5649167  51.8736186  51.2192408  50.8726713  51.8919973  50.4842656
  51.3940207  52.3360340  52.1007529  52.7730005  50.4569954  49.9603710
  53.8257654  49.6710580  49.7115530  53.8533672  49.3033314  48.6964228
  54.8304954  49.4113079  50.5470579  54.5926310  50.0088393  51.8115582
  58.9395931  49.3375803  53.9572166  59.5158890  50.0633095  54.5334303
  57.9631506  49.9866498  52.9313614  57.9285984  51.0655921  53.0787883
  58.3480988  49.8353816  51.9224244  59.9303354  48.6765807  53.1960181
  61.1970485  49.4643403  52.6020671  62.1255522  48.4104280  52.2006101
  61.6732838  50.5049251  53.5600135  60.6403906  50.1096651  51.2626519
  60.4548513  49.2743829  50.0643398  59.7910976  48.4230169  50.2195525
  61.3857529  48.7889234  49.7697361  59.8447520  50.0202496  48.8721806
  60.0315907  49.4932228  47.9358670  58.4326317  50.2418077  48.9270663
  58.1530208  51.5655767  48.6209383  58.1092472  51.5998051  47.5318909
  56.8257059  52.0384166  49.1201984  56.5734410  52.6768798  50.3159003
  57.3338173  52.8211502  51.0691088  55.3544808  53.1594435  50.3906681
  54.7628467  52.8420912  49.1462186  53.5162794  53.1358952  48.5662210
  52.5645546  53.8668730  49.1423636  51.6983448  53.8961258  48.6227465
  52.6682927  54.2166699  50.0842179  53.3123261  52.6971816  47.3037427
  54.2451389  52.0101589  46.6665159  54.0679856  51.8535528  45.6127530
  55.4375394  51.6877993  47.0943177  55.6224765  52.1637755  48.3534976
  60.4640045  51.3590449  48.6206029  61.4065189  51.5359436  49.1398326
  59.4011904  52.2890955  49.0768322  59.5021826  52.4591067  50.1487271
  59.4604393  53.2229859  48.5164214  60.6225592  51.6292655  47.2469260
  62.0911700  51.4109203  46.5333905  62.6088992  50.0328664  46.8307537
  62.9574821  52.5698221  46.8380015  61.6159878  51.5468781  45.0524799
  60.6411391  50.6490686  44.4167849  59.8172845  50.4206329  45.0924066
  61.1196819  49.6912393  44.2129567  59.9659883  51.1798553  43.1141453
  59.8430436  50.3071225  42.4728192  58.6849707  51.8203462  43.4823494
  58.8310725  53.2909236  43.3120484  58.2449086  53.6198715  42.4553050
  58.2179571  53.8671825  44.5720584  58.7331647  53.9358625  45.8323216
  59.7480763  53.6022331  45.9852131  58.0044461  54.6255045  46.7155742
  56.7696710  54.7916132  46.0096051  55.4422275  55.3860234  46.2510093
  55.1314731  55.9919040  47.3512526  54.2096498  56.3749913  47.5026693
  55.9306562  56.1904443  47.9365868  54.4570651  55.2624769  45.3094721
  54.7265778  54.6809944  44.1853991  53.9368071  54.5773751  43.4563660
  55.9097104  54.2260976  43.7796405  56.9107806  54.3512624  44.7223284
  60.7390880  52.2435551  42.3331118  61.8068061  52.0844889  42.4855492
  60.2663029  53.6355156  42.9296662  60.8008102  53.9305511  43.8341827
  60.4011877  54.5177120  42.3035978  60.4354969  52.2038209  40.9683900
  60.9419568  53.3202733  39.9503304  61.1287156  52.6915315  38.6375795
  62.0327461  54.0820038  40.5728626  59.5871796  54.1513919  39.8925490
  58.3449180  53.4710615  39.4654451  58.0928056  52.6397530  40.1240881
  58.4203895  53.0220876  38.4746330  57.2544095  54.4976135  39.2084707
  56.4517071  54.0771273  38.6024095  56.7482218  55.0058403  40.4146931
  56.9498571  56.3995360  40.3738920  56.0766752  56.8095586  39.8679386
  57.1497520  56.9923413  41.6791287  58.2775358  56.8617001  42.4412399
  59.1136661  56.3224319  42.0220730  58.3103374  57.3724694  43.7133122
  59.5987409  57.3371122  44.4882020  60.1881202  56.4800669  44.1633414
  60.0995141  58.3015003  44.4014388  59.4060346  57.2805045  45.5590716
  57.1082862  57.9676721  44.3067123  57.0810427  58.4210328  45.4198102
  56.0146394  58.0234672  43.5012108  55.1751114  58.4685545  43.8434271
  55.9825359  57.5439992  42.2267427  54.9315037  57.6483826  41.7032415
  57.8188136  55.5873518  38.2994561  58.8120813  55.3892331  37.8978628
  58.0323820  56.7115487  39.3479126  59.0329377  56.5862233  39.7609124
  57.9054044  57.6665702  38.8398678  56.9518354  56.0078808  37.2288478
  57.3900474  57.0958691  36.1783995  56.7434285  56.5239724  34.9744572
  58.8727455  57.1595696  36.1336277  56.8403185  58.5348127  36.3838271
  55.4745556  58.7985952  36.3919784  54.8734035  58.0026309  36.8309510
  55.1634072  59.0043582  35.3678972  55.3337755  59.9968780  37.3100723
  54.2722346  60.2423335  37.3218413  55.6976882  59.6987488  38.6766829
  55.8545200  60.9881985  39.2472372  54.8548767  61.3199974  39.5298391
  56.7404646  60.9926413  40.3948209  58.0227485  60.3989445  40.3578625
  58.4628756  60.1748713  39.3967661  58.8122623  60.2497797  41.4781374
  60.2757575  59.8282185  41.3566755  60.8302473  60.6222456  41.8575906
  60.4997678  58.9571734  41.9729497  60.5123404  59.7347152  40.2970536
  58.2723749  60.7101091  42.8326305  58.8243472  60.8620658  43.9506988
  56.9250859  61.1033913  42.8438725  56.6277080  61.6022361  43.6707106
  56.1862865  61.2665055  41.6885482  55.0210424  61.6634125  41.8911733
  56.1664977  61.1879927  36.8161496  57.1175171  60.8640066  36.3952303
  56.3233039  61.9367559  38.1370865  57.3870448  62.1373077  38.2698014
  55.7434719  62.8588586  38.0959124  55.5421083  61.9884537  35.7925764
  56.2407216  63.2503265  35.1664338  55.6346304  63.3774612  33.8330561
  57.7054345  63.1501617  35.3296277  55.7937136  64.4484278  36.1077319
  54.4119048  64.7543108  36.3732489  53.9747275  63.8282725  36.7479250
  54.0310463  65.0564642  35.3977926  54.2416852  65.8601602  37.3903346
  53.1774773  66.0603600  37.5104494  54.7264366  65.4008303  38.5705978
  55.7778916  66.2730926  39.0096184  55.2778077  67.0297268  39.6125975
  56.7010012  65.5469467  39.8548170  57.7733786  64.8022081  39.4220397
  57.9626580  64.6482716  38.3704928  58.5014198  64.2766391  40.3850185
  57.8635747  64.7086458  41.5371131  58.0653734  64.5607421  42.8887458
  58.8727951  63.7215951  43.4038580  58.8698339  63.5907823  44.4049035
  59.4103115  63.0823473  42.8361385  57.3287497  65.1121963  43.7853643
  56.2951206  65.8314955  43.3644681  55.8771987  66.5440703  44.0589523
  55.8925990  66.0778432  42.1169080  56.6710436  65.4254196  41.2464659
  55.0437516  67.1367407  37.0557725  55.2980147  67.0750360  35.9972695
  56.3681318  67.0245032  37.8776848  57.1444773  66.5473382  37.2799514
  56.5811950  68.0448820  38.1961204  54.1692909  68.2430376  37.3872853
  54.5660935  69.8493248  37.4736279  53.3527104  70.7466030  37.0800807
  55.8903165  70.0843673  36.7758962  54.7867957  70.1117575  39.0340684
  53.7043869  69.8875450  39.9671117  53.3955390  68.8620434  39.7625404
  52.8640608  70.5554758  39.7766244  54.0835397  70.1578551  41.4203500
  53.1596134  70.0260991  41.9842591  55.0443360  69.1984128  41.7241112
  56.0654704  69.8058979  42.4836746  55.7374303  69.7488874  43.5219619
  57.3521056  69.0403952  42.3691997  57.8948542  68.6584161  41.1317710
  57.4108608  68.9896602  40.2246003  58.9950473  67.8757279  41.0761264
  59.5199068  67.4993091  39.6844963  60.3335472  68.1614406  39.3875044
  59.9716190  66.5190588  39.5363765  58.6963663  67.5483522  38.9729790
  59.6216030  67.4174080  42.3455384  60.6049099  66.6848823  42.4708644
  59.0724695  67.8888159  43.5098321  59.4947945  67.5927633  44.3788116
  57.9427676  68.6432822  43.5638163  57.4802594  68.9653747  44.6695444
  54.7191078  71.4822598  41.7864913  54.5869364  72.2191978  40.9929775
  56.1978333  71.2244099  41.9759918  56.5845748  71.2967490  40.9588984
  56.7069148  71.9460335  42.6138040  54.2213651  71.9935164  43.0055396
  54.2407873  72.9495331  42.9237918  65.3491590  61.9440436  50.1812429
  64.5627102  61.9419375  50.7314463  65.0148289  62.4890571  51.9815922
  66.0415190  62.1506480  52.1226337  64.3559744  62.0435522  52.7271699
  64.9499759  63.9755450  52.1033784  65.4473695  64.2143817  53.0429558
  65.4406679  64.6198666  50.9261558  64.5134053  65.5895200  50.3894972
  65.0457923  66.5162620  50.1723794  63.9120484  65.0563518  49.1562727
  64.3553824  64.0052443  48.3354085  65.0972579  63.2707565  48.6135351
  63.7232539  63.9501757  47.1871955  62.9578864  65.1402661  47.2127534
  62.1475476  65.8417860  46.2623204  61.8982100  65.5958775  45.0154448
  61.3077168  66.1886029  44.4498606  62.3685616  64.7647041  44.6858901
  61.5168348  66.9868475  46.5614866  61.6578935  67.4223740  47.8028198
  61.1606022  68.3561355  48.0189861  62.4397203  66.9527435  48.7526462
  62.9957202  65.7844353  48.4527295  63.3686485  64.2746025  52.1281015
  62.7447366  63.6226727  51.5171551  63.4101138  65.7198613  51.5610535
  62.4857519  66.1232801  51.1488337  63.9394510  66.6112436  52.5231013
  63.6752965  66.1935996  53.3461303  62.8213674  64.3116879  53.4578598
  61.2668538  63.9469884  53.7368775  60.9483600  64.0577507  55.1650842
  60.8969075  62.6468980  53.0754113  60.3435081  64.9736812  52.9928348
  60.2962872  66.3214217  53.3919084  61.2538553  66.8354992  53.4660483
  59.8864774  66.3612299  54.4015976  59.4605130  67.1651513  52.3741073
  59.5188905  68.2121563  52.6739583  59.8985062  67.0790655  51.0581012
  58.9019812  67.3120144  50.0547261  59.0410382  68.2802332  49.5732976
  58.9426280  66.2143102  49.0741720  59.5643744  64.9295506  49.2779690
  60.0898329  64.7231862  50.1984315  59.7726558  64.0545295  48.3225728
  60.2450063  63.1152322  48.5702634  59.1815138  64.2550271  47.0087247
  59.3636192  63.5319996  46.1110673  58.4244409  65.4270021  46.8442641
  57.8331763  65.4647765  46.0260561  58.1933658  66.3430589  47.8650095
  57.5131203  67.3621742  47.5999186  58.0176587  66.7889963  52.2492365
  58.0783663  65.7081137  52.1270707  57.5939968  67.4098756  50.9401446
  56.8130175  66.7481345  50.5651379  57.2628624  68.8291563  50.9886684
  56.7274524  69.0593665  50.2270087  57.2172754  67.3019905  53.3427192
  56.2542092  66.2851382  54.0343490  55.5223334  67.0139961  55.0738359
  57.0465497  65.0962931  54.3363654  55.1950003  65.8446129  52.9101876
  54.3162585  66.8524355  52.4355598  54.9256297  67.7572463  52.4251579
  53.5867756  67.0805187  53.2119860  53.6513690  66.5362199  51.0481336
  53.1128007  67.4395393  50.7627229  54.6317147  66.4422061  50.0486664
  54.1220522  65.6575496  48.9573881  54.0858979  66.2324831  48.0324198
  55.0222730  64.4421276  48.7273946  55.6639584  63.6805631  49.6744112
  55.6480470  64.0365750  50.6947471  56.3327417  62.6379823  49.1984163
  56.0526569  62.7070502  47.8449880  56.5495732  62.0293320  46.7411215
  57.4690002  61.1142228  46.8452902  57.7753507  60.6077361  46.0268242
  57.8922421  60.8397928  47.7207212  56.1354798  62.2749173  45.5086117
  55.2728655  63.2586484  45.3646264  54.9451084  63.3768864  44.3412809
  54.7309822  64.0706973  46.2937497  55.1263004  63.6872169  47.5573950
  52.7919346  65.2578104  50.9451450  53.2661222  64.3997599  51.4234101
  52.7571099  65.1388179  49.4020676  52.6377850  64.0967853  49.1035132
  51.7587745  65.9369652  48.8307775  51.1288520  65.3229022  48.4460941
  51.5351274  65.4446238  51.4941599  50.5427310  64.1924652  51.6933187
  49.4444700  64.6940100  52.5809089  51.3097449  63.0204280  52.1332555
  49.8982650  63.8449910  50.2682523  48.9225701  64.6123490  49.6306190
  49.2283696  65.6541181  49.7266957  48.0002962  64.5388564  50.2053283
  48.7179914  64.3042143  48.1418538  47.9396723  65.0016126  47.8330965
  50.0303899  64.3069933  47.5144916  50.3152979  63.1539184  46.7494382
  50.5135629  63.5035301  45.7362903  51.4258152  62.2772552  47.2325099
  51.7815649  61.8954161  48.5402985  51.3488557  62.3450774  49.4222494
  52.8444675  61.1105468  48.4870337  53.0141750  60.8031824  47.0823058
  53.9019091  59.9613830  46.3464988  54.9026635  59.2562967  46.8203784
  55.6252923  58.8472193  46.2446587  55.0870569  59.3141028  47.8113151
  53.8578467  59.8801186  45.0327775  52.8966109  60.5480404  44.4141806
  52.8232121  60.4830305  43.3389214  52.1110212  61.4673317  44.9541827
  52.1580766  61.5085172  46.3532898  48.1886379  62.8475439  47.8838340
  48.4756280  62.2068229  48.7177395  49.0261243  62.3281753  46.7078605
  49.2790529  61.2748943  46.8295047  48.5121356  62.7533434  45.4696995
  47.6915254  62.3193077  45.2206715  46.8443502  62.7971998  47.5640840
  46.0228529  61.4470785  47.7431721  44.6067510  61.7659448  47.5693652
  46.5740378  60.8905894  48.9689946  46.4336947  60.4864323  46.5620468
  46.1079242  60.7740500  45.2069551  46.2068774  61.8152545  44.9035681
  45.0449631  60.6051246  45.0389675  46.8142071  59.9187344  44.1072981
  46.4047575  60.2493940  43.1524315  48.2370663  59.9879118  44.2589831
  48.8605582  58.7730626  44.0222232  49.4839975  58.9257776  43.1412285
  49.6574697  58.2452635  45.1668773  49.3855331  58.4713423  46.4949314
  48.4207519  58.8566401  46.7904374  50.2824525  58.1738103  47.5078833
  49.9689187  58.2557648  48.5377867  51.5748601  57.6686645  47.1699111
  52.4297957  57.3862400  47.9476968  51.7808918  57.4958983  45.9106269
  52.6363823  57.0243513  45.6543587  50.8904204  57.6671404  44.8644745
  51.1932305  57.2077854  43.7366430  46.3856079  58.4322138  44.1547984
  46.2382142  57.9872057  45.1385076  47.7147289  57.7848331  43.6709414
  47.7901608  56.7984587  44.1283302  47.8171723  57.6266503  42.2389297
  48.3280230  56.8302161  42.0740990  45.3931233  58.0121653  43.2595858
  44.6858776  56.5834971  43.3105841  43.5674321  56.5766079  42.3225101
  44.4474705  56.3697793  44.7075855  45.6703196  55.3468686  42.8681311
  46.0362187  55.0777455  41.4913404  46.2547057  55.9908273  40.9383593
  45.2772494  54.6304991  40.8501748  47.3526364  54.2683878  41.3839884
  47.5618473  54.1485573  40.3217872  48.4596004  54.9694407  41.9560169
  49.4149518  54.0429255  42.4521401  50.3111679  54.1354047  41.8407497
  49.6283033  54.2360059  43.9145133  48.5799780  54.3951078  44.7845458
  47.5867884  54.2456700  44.3901998  48.8049570  54.6644712  46.0536143
  47.9679597  54.8575560  46.7091903  50.1437500  54.5924422  46.5936338
  50.3977129  54.8006346  47.8061422  51.1105939  54.1989982  45.7561210
  51.9672668  53.8920940  46.1958020  50.9291531  53.9206713  44.4130992
  51.7327893  53.2641270  43.7407515  47.3135443  52.8338168  41.9753292
  46.8391046  52.8793444  42.9553492  48.8295228  52.5901649  42.1817007
  48.9746611  51.9158068  43.0277562  49.3460242  52.0793399  40.9712503
  48.6972290  51.6019590  40.4501455  46.6004882  51.9611411  41.1056579
  45.8035304  50.7958245  41.8197450  45.2209438  49.9837188  40.7384467
  44.9791160  51.2994338  42.8554054  47.0370877  49.9825556  42.4715274
  47.8824789  49.1554412  41.6773300  48.2715559  49.7135299  40.8260403
  47.3255741  48.3069598  41.2794387  49.1019839  48.6298683  42.5142085
  49.8794114  48.3308241  41.8117812  49.7483485  49.6368247  43.2401372
  50.4594450  49.0647812  44.3715174  51.5417242  48.9992781  44.2588324
  50.2502291  49.8485711  45.6089437  49.0131468  50.5205737  45.7851538
  48.1883350  50.4837904  45.0885100  48.7847797  51.2164598  46.8990846
  47.9069931  51.8238127  47.0657556  49.7998092  51.3339052  47.9290568
  49.6914321  51.8845721  49.0084225  51.0088325  50.7185568  47.5987299
  51.6654107  50.7255340  48.3661694  51.2942762  49.9745715  46.5324932
  52.3707856  49.3424802  46.5429444  48.8258538  47.5466295  43.5846042
  47.9501749  47.9199167  44.1147855  50.0880611  47.5734049  44.4778464
  49.8840199  47.2679498  45.5044044  51.0707707  46.7945126  43.8335999
  51.0761591  45.9652913  44.3161236  48.4861599  46.2858022  43.1310422
  47.8625531  45.2365612  44.1436957  47.4213341  44.1375936  43.2817404
  46.9557271  45.9674181  45.0013930  49.0132924  44.7208436  45.1239448
  50.0129681  43.8400578  44.8542860  50.3958300  43.9972579  43.8453524
  49.7223878  42.7958607  44.9692530  51.2052560  43.9831937  45.9326161
  51.9988249  43.3830449  45.4870088  51.4580036  45.3813222  46.2505362
  51.9890143  45.4786756  47.5544353  52.9775893  45.9338494  47.5095671
  51.1205053  46.3829869  48.3441373  49.8411906  46.8594864  48.0407694
  49.3317843  46.6019958  47.1240334  49.4196369  47.7292539  48.8833458
  50.3890585  47.6840599  49.9017716  50.3518919  48.2427042  51.2012747
  49.5404216  49.0243637  51.7520789  51.3856023  47.8152885  52.0413988
  51.2394773  48.0194288  53.0193028  52.2691878  46.8442352  51.6116624
  53.3657570  46.7082214  52.4217922  53.3649695  47.2183887  53.2934628
  54.2399635  46.3121513  52.1056664  52.3600089  46.3409667  50.3867831
  51.3496403  46.7725757  49.6074091  51.0010144  43.4158035  47.3164415
  50.0327498  43.7370216  47.7024331  52.1701758  44.0383910  48.1444732
  51.9280642  43.9905393  49.2055732  53.4073641  43.4778250  47.8543909
  53.3562199  42.5313313  48.0049865  51.1008506  41.9902297  47.1763344
  50.0576927  41.1728284  48.0429288  50.1733360  39.7283579  47.6100366
  48.7646782  41.8449869  47.9849155  50.5711502  41.2180554  49.5576637
  51.8845825  40.9550421  50.0051207  52.6404170  41.4634282  49.4068617
  52.0054102  39.8733940  50.0549200  52.1673952  41.4416596  51.4735805
  53.2104960  41.1882871  51.6627102  52.0564666  42.8737035  51.6327952
  51.7231390  43.2725649  52.9556222  52.4693096  43.8856914  53.4596055
  50.4666263  44.0259092  52.8636756  49.6753861  44.0733495  51.8017028
  49.7629262  43.3592188  50.9952388  48.7018014  44.9184850  51.8920119
  49.0074846  45.5819104  53.0980486  48.4168623  46.6748414  53.7671204
  47.2213055  47.1745159  53.4603577  46.9167577  48.0682786  53.8169806
  46.7416409  46.7445524  52.6826668  49.0156762  47.0872809  54.9011123
  50.0974249  46.4468464  55.3679854  50.6494872  46.8647921  56.1967462
  50.6777506  45.3747728  54.8953721  50.0721210  45.0102344  53.7169725
  51.2047659  40.8852457  52.5432186  50.1872218  40.9693236  52.1623751
  51.5791822  41.9333126  53.6694323  50.7611416  41.9921837  54.3872684
  52.7181061  41.6747312  54.3514360  52.9559461  40.7617219  54.5269894
  51.3775277  39.5406957  52.9574317  50.2914173  38.6794729  53.8024681
  50.7857608  37.2850963  53.8768409  48.9420755  38.8670147  53.2475655
  50.0965443  39.2247098  55.3170384  51.1225358  39.1297413  56.3056088
  52.0927160  39.1091842  55.8083505  50.9325773  38.1737304  56.7939662
  50.9527821  40.2114615  57.3414978  51.7705486  40.0372645  58.0394444
  51.0008656  41.5209067  56.7688042  50.2794575  42.4089792  57.5786954
  50.8500062  43.2776918  57.9063759  49.0382632  42.7999920  56.8198499
  48.5807867  42.1887759  55.7287132  48.9614155  41.2315370  55.4072394
  47.4916886  42.6753992  55.1321864  47.0405734  42.2071232  54.2700555
  46.7176949  43.8780181  55.5618392  45.8185448  44.4183137  54.9822542
  47.2631744  44.4006206  56.6716331  46.8715500  45.2774172  56.9844975
  48.3212881  43.9108080  57.3255689  48.6798392  44.5559073  58.3305331
  49.8114157  40.1482860  58.3269345  48.8430490  40.0866470  57.8318056
  49.9174068  41.5823930  58.8250631  48.9466764  41.8984852  59.2088991
  50.8990979  41.8433172  59.7969371  50.9141842  40.9635577  60.1825648
  50.0879084  39.2314144  59.3832263  48.9685451  38.6038864  60.2932705
  49.5878922  37.7110183  61.3539989  47.8268745  38.1154987  59.4630755
  48.3688945  39.8003925  61.1179209  49.0262210  40.3725244  62.2612720
  50.0184192  40.7126764  61.9647953  49.0709226  39.7367093  63.1458747
  48.2753201  41.6090002  62.8089986  48.7964916  41.9506993  63.7036321
  48.1265151  42.6094140  61.8366445  46.8305400  43.3392425  62.1964786
  46.9623378  44.3869390  62.4649772  45.9473334  43.2832743  60.9479263
  46.0709408  42.2786040  59.9940790  46.8447897  41.5417857  60.1567402
  45.4080254  42.3080785  58.8136538  45.5337880  41.6850041  57.9399307
  44.3955218  43.3236580  58.6860658  43.6897184  43.4460143  57.6376997
  43.0733613  44.2279218  57.4738993  44.0233285  42.8819485  56.8683720
  44.1155389  44.1887509  59.6185859  44.9924609  44.2511295  60.7199090
  44.7940063  45.1939889  61.5431107  46.8544819  41.2145431  63.1459679
  46.4040728  40.6833284  62.3069717  46.1089979  42.5256768  63.3095554
  45.0367865  42.4152199  63.1481150  46.5934496  43.1231378  64.4851203
  46.6346523  42.4065545  65.1232109  46.7833437  40.5297280  64.4034649
  45.5292418  39.5498162  64.7491428  45.8034563  38.8942178  66.0352545
  45.3352974  38.6848468  63.5549571  44.3115775  40.5045174  64.9059013
  44.1047888  41.2356317  66.0969447  45.0589866  41.7190042  66.3077991
  43.8872515  40.5849270  66.9439435  43.0343262  42.3308426  65.7669695
  43.0816633  42.9766232  66.6438421  43.2404030  43.1835029  64.6926898
  41.9647419  43.5427447  64.0613459  41.9258625  44.6297971  63.9912424
  41.7824877  42.8201579  62.8320669  42.4834021  41.8041796  62.3506968
  43.1493175  41.1579071  62.9039855  42.2818813  41.5242089  61.0642444
  41.3322486  42.4492534  60.7492514  40.7019360  42.7271528  59.5169791
  40.8390336  42.1467917  58.3343400  40.4707984  42.5961040  57.5066738
  41.5549189  41.4504253  58.1855179  39.8694436  43.7669734  59.3791289
  39.6721493  44.5076969  60.4705856  38.8885942  45.2521599  60.4817759
  40.2243969  44.4006970  61.7170067  41.0179741  43.3124439  61.7700578
  41.5082975  41.8941209  65.7569363  41.5124650  40.9965853  65.1391325
  40.8851696  43.1478848  65.0517778  39.9800474  42.7543732  64.5896594
  40.7204724  44.1140322  66.1168619  40.8104880  43.5544321  66.8917973
  40.9930575  41.7429565  67.0657809  39.8735499  40.7570529  67.4345774
  39.7146475  40.9272088  68.8437850  40.2056062  39.4156035  66.9327068
  38.6828103  41.4205163  66.6474659  37.8311159  42.3713448  67.1444847
  38.3700484  43.2580237  67.4781347  37.1256487  41.9749496  67.8753150
  36.9423470  42.9621373  65.9792375  36.5642190  43.9612656  66.1959210
  37.7360971  43.1865555  64.8433294  36.9364912  43.1770785  63.6989524
  36.9769017  44.1640323  63.2357136  37.3071518  42.2422754  62.6354818
  38.1433516  41.1766509  62.8930793  38.3863205  40.9972042  63.9293264
  38.7259404  40.4960397  61.8377293  39.4358979  39.7190534  62.0780655
  38.2834440  40.6934753  60.4311767  38.7194973  40.1269440  59.4466088
  37.3811235  41.7225990  60.2743103  37.0904183  41.9178986  59.3273433
  36.9087576  42.5100542  61.3285275  36.0380212  43.3157428  61.0335988
  35.7880785  42.0968725  65.5386615  36.0695282  41.0441911  65.5232648
  35.5518209  42.7355471  64.1426733  35.1383097  41.9994441  63.4545556
  34.6619391  43.8203533  64.1926734  33.7779241  43.4467742  64.1711752
  34.7167585  42.2740566  66.4708654  33.3953148  41.4126076  66.3720361
  32.5834522  41.6106899  67.5752217  33.8897538  40.0669142  66.1454323
  32.6279487  41.9213261  65.0543185  31.8209410  43.1281220  65.0914962
  32.5322133  43.9237151  65.3137757  31.0607384  43.0313060  65.8665799
  31.1852048  43.3409973  63.7310310  30.5137295  44.1742091  63.9355495
  32.2081818  43.7073026  62.7688586  31.7647048  43.0787062  61.5286047
  31.7306575  43.8475458  60.7580676  32.6052452  41.9492564  60.9485797
  33.1275345  40.9972887  61.6726228  32.9391672  41.0476387  62.7347059
  33.8563572  39.9887554  61.1017278  34.2980758  39.2633591  61.7693197
  34.1127366  40.0784588  59.7062824  34.7860688  39.1406148  59.0748415
  34.9600683  39.1829609  58.0801602  35.1241455  38.4079212  59.6811790
  33.5978174  41.0172206  58.9667060  32.8505576  41.9349487  59.5621462
  32.3460361  42.7879439  58.8211696  30.3600365  42.2087516  63.2190106
  30.8812766  41.2666608  63.3830891  30.3449250  42.5973738  61.7063083
  30.1734643  41.7260439  61.0758557  29.4292583  43.6619045  61.3269577
  29.1770586  44.1111925  62.1359896  29.0598357  42.1276853  63.7165718
  28.2991613  40.7613150  63.6564245  27.0706729  41.0105936  64.3761560
  29.1890531  39.6877328  64.1345664  28.0432701  40.5642529  62.0499142
  27.0937752  41.3765455  61.3362321  27.2507876  42.4438777  61.4883706
  26.1072657  41.1746848  61.7515287  27.2075053  41.1761667  59.7944838
  26.7295311  41.9939515  59.2548563  28.5787755  41.0651537  59.4840260
  28.7215932  40.3643627  58.2230740  28.8593001  41.0775450  57.4106825
  29.8522766  39.3736380  58.2435882  30.3833889  38.8917534  59.4699161
  30.0787015  39.2619861  60.4379049  31.4573873  38.0182785  59.4643475
  31.7590330  37.6566595  60.4366158  32.0286218  37.4971420  58.2478177
  32.9378347  36.6377808  58.1123433  31.2776905  37.8762446  57.1276617
  31.6061789  37.4275767  56.2850939  30.2719234  38.8634904  57.0258773
  29.7086721  39.1391380  55.9481744  26.6394741  39.8351323  59.3280020
  27.0390278  39.0544049  59.9749886  27.3141231  39.7505831  57.9440717
  27.4200644  38.7298046  57.5743531  26.6210418  40.6385008  56.9432747
  26.3147063  40.0953277  56.2133189  25.2256810  39.7195758  59.2813351
  24.4627449  38.3396416  59.0203598  22.9821581  38.4741339  59.1369938
  25.0854701  37.3311691  59.8919184  24.9584783  38.0631060  57.4676768
  24.2416989  38.7088496  56.3433683  24.3433153  39.7919557  56.3970362
  23.2339256  38.3568479  56.5693965  24.7142564  38.2083238  54.9420467
  24.1779437  38.7063291  54.1351876  26.1487578  38.3006871  54.8540947
  26.6045823  37.2395751  54.0710313  26.9043359  37.6800763  53.1199895
  27.5989176  36.4168455  54.7999910  27.7234955  36.3335439  56.2097399
  27.0035215  36.6724164  56.9396227  28.6754445  35.5652592  56.6563804
  29.2406738  35.1730909  55.3979803  30.3373607  34.3190229  55.0748986
  31.1815780  33.7849798  55.8541540  31.8916059  33.2013306  55.4365764
  31.0692180  33.8485623  56.8558154  30.6256311  33.9940973  53.8008399
  29.8801670  34.5701305  52.8426358  30.1775614  34.3800232  51.8220861
  28.7931006  35.3091614  52.9824393  28.5753717  35.6065968  54.2680817
  24.3672087  36.7210854  54.8599251  24.5542108  36.2483329  55.8239958
  25.3934119  36.3490721  53.7704060  25.6632376  35.2922821  53.7989525
  24.8437292  36.6340920  52.4693289  24.2629091  35.9154900  52.2107230
  23.0247430  36.6500553  54.4745491  22.2159349  35.3273434  54.5187383
  20.8193885  35.6446701  54.2566353  22.6114129  34.6144954  55.7141269
  22.8007194  34.4532017  53.3393272  22.3799823  34.7560914  51.9711927
  22.4751947  35.8399433  51.9037638  21.3847699  34.3646520  51.7565828
  23.3162076  34.0581158  50.9710576  23.0005699  34.3417297  49.9664716
  24.7302327  34.3665963  51.1733884  25.4901583  33.2120017  50.9471755
  26.1997558  33.3756659  50.1345757  26.1704108  32.5444493  52.1048181
  25.5465274  32.4565185  53.3458236  24.4987007  32.6763156  53.4813204
  26.2329313  32.0365805  54.4091141  25.7874350  31.8068949  55.3656190
  27.6583250  31.7371522  54.3975650  28.3330224  31.3289915  55.3567054
  28.1467476  31.7595510  53.1286861  29.0983456  31.4274215  53.0623445
  27.4836574  32.1024572  51.9226771  28.0170865  31.8435181  50.8704922
  23.3260790  32.4920386  50.8652895  23.1520002  31.9716823  51.8067904
  24.6173095  32.2398025  50.2070047  24.9221254  31.2000052  50.3258393
  24.6570019  32.5041557  48.8092794  23.9811232  31.9097737  48.4725823
  22.1735799  32.2019872  50.0249230  21.2682154  30.9540600  50.3176582
  20.2422200  30.8046477  49.2495957  20.8357961  31.1433115  51.7113480
  22.2955284  29.7786443  50.2349843  22.7065823  29.4354553  48.9116846
  22.9355616  30.3451685  48.3565672  21.9238466  28.9660616  48.3165044
  23.9727684  28.4857485  48.9357401  24.1386549  28.2567773  47.8829367
  25.1339517  29.0474621  49.4695088  25.8007670  28.0105087  50.1704717
  26.8411514  27.9506571  49.8468604  25.7814995  28.3511461  51.6334207
  24.6966270  28.9640763  52.2496440  23.8716807  29.2661366  51.6223544
  24.7451596  29.3248876  53.5559815  23.9299609  29.8359306  54.0461570
  25.9146221  28.9950356  54.3688168  26.0311908  29.1441142  55.5937516
  26.9826001  28.4396471  53.7427180  27.7706009  28.2583512  54.3459249
  26.8873667  28.0010534  52.4274955  27.7925430  27.3696791  51.9637290
  23.6176257  27.1932184  49.6737893  23.0640035  27.4684555  50.5711432
  25.0614070  26.6755578  49.9852503  25.0175098  26.0674639  50.8885824
  25.6124459  26.0312296  48.9335264  24.9390722  25.7916111  48.2926803
  22.9369821  26.2147558  48.9541099  22.1883177  25.1053177  49.6693564
  21.4464338  24.3721323  48.6665821  21.3885129  25.6439487  50.7865757
  23.2763582  24.1403170  50.2814989  23.9747979  23.0923506  49.5542840
  24.5459696  23.5862340  48.7665962  23.3376312  22.3494906  49.0754474
  24.8372300  22.3295264  50.5408012  25.4035413  21.5333444  50.0581670
  25.6435011  23.2300396  51.2645546  25.7375886  22.8915171  52.6517508
  26.7518290  22.5547768  52.8652300  25.4490716  24.1229078  53.5807846
  24.7855766  25.2759001  53.3520991  24.2334233  25.4826219  52.4464779
  24.6181839  26.0295371  54.4352413  25.4835911  25.3790434  55.3729935
  25.8857448  25.6546650  56.7023942  25.6484484  26.7977543  57.3420904
  26.2356559  27.1040598  58.1061730  25.1121203  27.5029216  56.8568055
  26.8188639  24.9140567  57.2722355  27.3006446  23.8988347  56.6463356
  28.0780977  23.3709723  57.1796900  26.9916767  23.4318739  55.4579588
  26.0540523  24.2677523  54.8346636  24.0079434  21.6504129  51.6490081
  23.1442233  22.2939878  51.8196918  24.8544394  21.6627343  52.9180856
  24.2192452  21.6939782  53.8028168  25.7006694  20.4673071  52.8693163
  25.3742342  19.7488250  53.4147368  23.7329891  20.3620630  51.1673519
  22.5668294  19.3668624  51.6849206  22.5365637  18.2149382  50.7650344
  21.3408466  20.1256071  51.8481461  22.9940319  18.8190210  53.1387050
  23.8467352  17.7300904  53.2973810  24.7418768  17.8236905  52.6836265
  23.2439343  16.8788566  52.9808038  24.1539258  17.5103038  54.7861392
  24.6305480  16.5556889  55.0110895  24.9588017  18.5545937  55.3765047
  24.6811142  18.8343051  56.7190665  25.5732427  18.6398288  57.3152240
  24.2997740  20.3119155  56.8755949  23.3201612  20.9694119  56.1242027
  22.8071194  20.4706356  55.3163658  23.0421107  22.2723022  56.3108329
  22.4222465  22.7585541  55.5727560  23.5033958  22.9812554  57.4491178
  23.0069950  24.0291588  57.8678941  24.6355837  22.4083127  57.9580590
  25.0905393  23.0074081  58.6309031  25.0504810  21.1030960  57.8138734
  26.0825038  20.7174267  58.3683082  22.9163283  17.5722068  55.6250530
  22.1816279  18.2939291  55.2665487  23.4247510  17.9272189  57.0300845
  22.6411834  18.3847350  57.6336281  23.9732989  16.7728714  57.6166252
  23.7780970  16.0944643  56.9674596  22.3295481  16.2413921  55.5746326
  21.4093810  16.3265527  55.8327590  41.1685780  42.7623697  47.6170434
  54.4542327  59.0409470  55.5962230  44.9419996  37.0636417  54.0917218
  43.9339963  53.9835374  51.8070194  35.4772154  33.2093778  64.5241758
  38.7087212  52.8441694  46.1321311  49.8551297  61.0376809  62.3272551
  27.3991944  41.0508847  45.8713741  40.5656228  27.8766826  55.5453001
  21.0373751  32.6434228  61.4049191  40.5656227  50.8704703  68.8207694
  56.6445090  55.6337819  62.1702895  59.0215987  42.8513875  51.5384018
  26.2757948  47.2905386  59.0031927  35.7473774  35.6388011  40.4716289
  45.4608931  32.6153177  61.4653055  36.5801358  59.0968513  56.5298010
  34.9284499  59.5720282  50.9980531  31.2008341  22.8981073  45.6553461
  50.4804771  52.7146779  34.5634838  14.0686264  27.9742054  53.7470983
  50.0035802  45.9694782  68.2033380  29.0746000  38.4563473  70.3680371
  64.8683585  50.2016249  58.6044795  46.9568194  67.5728830  39.5952294
  30.9623566  16.6633917  55.4478996  73.1068255  35.8401609  25.2053869
  48.3935134  37.2497105  42.9976761  59.1267496  61.6283689  77.0410499
  77.5115437  35.4777733  42.0794742  44.4828524  36.2762872  71.2051152
  43.4034222  29.4445333  69.5687337  18.4258820  18.7727526  46.4424562
  43.9323613  70.4617435  49.1949633  74.7400537  74.1133540  78.3589549
  88.9216699  67.3928128  26.2465033  57.1881395  59.2901596  29.0328375
  18.2254964  40.1539159  56.5962012  83.2617493  40.1539157  30.0452628
  42.7954258  20.3909386  48.4716082  42.2329483  84.1574451  86.5374335
  62.9737665  30.4485246  32.4333801  64.8683580  50.2016252 111.7063575
  64.2171559  50.7870333 111.3197589  65.6627942  50.7322447 111.7658613
  58.7939207  47.2905389 112.1050709  59.5670083  46.7434376 111.9663585
  59.1464606  48.1549639 112.3165171  61.1305484  43.4498055 109.7369159
  61.3831005  42.9279577 108.9752622  60.1930044  43.2864201 109.8395843
  66.3458845  47.8906684 112.2432559  65.7104678  47.9641311 112.9553464
  66.0156251  48.4800283 111.5651639  60.8501773  45.3526161 111.9393534
  60.7338031  44.6771065 112.6074619  60.9604033  44.8658535 111.1225687
  62.8338801  39.8426208 110.6401572  63.0013203  40.7106445 111.0072043
  62.6435970  40.0053490 109.7162861  62.8128022  42.2983866 111.6248239
  62.6927647  42.7440916 112.4633719  62.1180610  42.6469183 111.0661777
  68.5113088  42.7705339 112.4528573  69.4230944  43.0032726 112.2776270
  68.0022735  43.3542383 111.8903651  61.6079518  43.6128718 113.9181805
  62.3103562  44.0649761 114.3855731  61.2760147  42.9712537 114.5461698
  56.3002680  47.9445098 114.5671835  56.8127201  48.7388349 114.7177400
  56.9525393  47.2471389 114.5005436  66.1616029  43.9408833 111.0315238
  65.6462653  44.7113438 111.2703626  65.8893338  43.2673970 111.6548300
  65.9502332  41.8135925 112.8575020  65.6452468  42.1282075 113.7085163
  66.9032775  41.8917345 112.9002353  64.3948764  47.9726149 114.5067974
  63.8670126  47.2378908 114.1941211  63.8936267  48.7500825 114.2607942
  59.4537079  40.6650276 110.8870470  58.6174391  41.0024963 111.2079745
  59.3141849  40.5299256 109.9497607  62.5401365  45.7906359 107.5102947
  61.6328426  45.5595612 107.7094096  63.0372396  44.9943978 107.6976928
  65.4462948  43.3960413 115.0499982  66.1934767  43.9081810 114.7407104
  65.7154537  43.0744466 115.9104376  63.7189598  45.8918954 112.0326937
  62.8100817  45.6077987 112.1299406  63.7484682  46.3118032 111.1730244
  63.4165686  47.4327698 109.3715015  62.9785116  46.7163556 108.9120653
  64.1576127  47.6603812 108.8100107  67.5376913  46.2912079 108.9647073
  66.9206084  45.5658907 108.8680126  67.0693402  47.0521439 108.6214147
  59.3275459  40.5097504 108.0868377  58.4504926  40.3886304 107.7230624
  59.8033212  39.7183582 107.8347266  65.0283088  39.2746197 113.1547711
  65.2446702  40.1570835 112.8536539  64.5477155  38.8832410 112.4253353
  60.0045647  49.6902971 113.1402802  60.1533767  50.3738435 112.4869475
  60.8112090  49.6708061 113.6552258  63.5041053  52.1851101 110.6114550
  62.9315020  52.8041289 110.1585021  64.0773846  52.7350463 111.1454471
  69.3526329  51.7854122 108.7027079  69.2739961  51.4513985 109.5962837
  70.1735996  52.2775890 108.7018552  63.8887851  43.5211914 107.9530602
  64.8346956  43.3918122 108.0219020  63.5102096  42.7826576 108.4300030
  62.0730768  41.4461891 107.8885487  61.1662224  41.1495003 107.9648201
  62.3506749  41.1491709 107.0219773  60.8429553  38.3048826 108.0297466
  61.7048717  38.6303724 108.2893284  61.0279897  37.5180322 107.5170532
  67.7787067  39.3377443 114.2289038  66.8912922  39.6227093 114.0109232
  68.1941056  39.1771206 113.3816315  66.9230281  49.1022117 108.3237058
  67.6266131  49.3072120 108.9394713  66.1992930  49.6698879 108.5886141
  67.7528091  44.8531979 114.4439328  67.6963292  45.3100530 113.6046960
  68.3056434  44.0922663 114.2662171  68.8316978  49.5404646 110.3735518
  69.6662582  49.1085845 110.1912993  68.6701321  49.3686660 111.3012412
  68.4862870  46.0436760 111.7391857  68.4311674  45.8781031 110.7980301
  67.8608926  46.7512793 111.8954047  64.8683581  27.2078375  98.4308882
  64.2171561  27.7932455  98.0442895  65.6627944  27.7384570  98.4903919
  58.7939208  24.2967512  98.8296016  59.5670084  23.7496499  98.6908892
  59.1464607  25.1611761  99.0410477  61.1305486  20.4560178  96.4614466
  61.3831006  19.9341699  95.6997929  60.1930045  20.2926323  96.5641150
  66.3458846  24.8968807  98.9677866  65.7104679  24.9703433  99.6798771
  66.0156252  25.4862405  98.2896945  60.8501774  22.3588284  98.6638841
  60.7338033  21.6833187  99.3319925  60.9604034  21.8720658  97.8470994
  62.8338802  16.8488331  97.3646879  63.0013205  17.7168567  97.7317350
  62.6435971  17.0115612  96.4408168  62.8128023  19.3045988  98.3493545
  62.6927648  19.7503039  99.1879026  62.1180612  19.6531306  97.7907084
  60.5734915  32.0749630 101.9983677  60.4958945  33.0257455 102.0772157
  59.9696559  31.7295502 102.6558603  68.5113089  19.7767461  99.1773880
  69.4230946  20.0094848  99.0021577  68.0022736  20.3604506  98.6148958
  70.9971904  25.6947718 103.9231825  70.3122942  26.0746619 103.3728858
  71.0815753  26.3043044 104.6563772  62.6710634  24.4967688 103.8337546
  63.1348979  24.7755391 103.0442169  62.4067432  23.5951133 103.6510637
  61.6079520  20.6190840 100.6427111  62.3103563  21.0711884 101.1101038
  61.2760148  19.9774659 101.2707004  62.8473284  27.4331783 100.7189216
  62.7118959  28.2783319 101.1474064  63.3883097  27.6351061  99.9555150
  56.3002682  24.9507221 101.2917142  56.8127202  25.7450471 101.4422706
  56.9525394  24.2533511 101.2250743  58.1097566  28.0672977 103.3739895
  58.2864195  28.9890942 103.1860879  58.9054400  27.7531396 103.8034274
  66.1616031  20.9470956  97.7560545  65.6462654  21.7175561  97.9948932
  65.8893339  20.2736092  98.3793606  71.1350305  23.7003311  99.6913718
  70.3579747  23.3614470  99.2468881  71.8141786  23.7055934  99.0168684
  65.9502334  18.8198048  99.5820326  65.6452469  19.1344197 100.4330469
  66.9032776  18.8979468  99.6247659  64.3948766  24.9788271 101.2313280
  63.8670127  24.2441031 100.9186518  63.8936268  25.7562948 100.9853249
  69.3741612  23.1737292 106.3480326  68.7165286  23.8636553 106.4360455
  70.1782011  23.5633724 106.6914313  68.1847070  21.5281665 104.3984268
  68.6978952  22.1611656 104.9005978  68.8348294  20.9282860 104.0327628
  59.4537080  17.6712399  97.6115777  58.6174393  18.0087085  97.9325052
  59.3141850  17.5361378  96.6742914  62.5401366  22.7968482  94.2348253
  61.6328428  22.5657735  94.4339402  63.0372398  22.0006101  94.4222235
  65.4469445  31.5065989  97.1544939  64.7731143  31.8097686  97.7629897
  65.8335267  32.3095069  96.8050396  65.4462949  20.4022536 101.7745289
  66.1934768  20.9143933 101.4652411  65.7154539  20.0806588 102.6349683
  63.7189599  22.8981076  98.7572243  62.8100818  22.6140109  98.8544713
  63.7484683  23.3180155  97.8975550  68.9508867  26.5087666 102.5263411
  68.4971194  25.6678576 102.5828601  68.3202833  27.1449064 102.8638191
  67.3941806  28.3464163 103.4613229  67.6864780  28.9069220 102.7425595
  67.9040426  28.6392724 104.2166388  63.4165687  24.4389820  96.0960322
  62.9785117  23.7225679  95.6365959  64.1576128  24.6665935  95.5345413
  62.3575431  29.1244514 104.5506682  62.3151610  29.3505360 103.6215214
  63.2738130  28.8907888 104.6992483  71.5338802  22.7147017 102.1536640
  71.3956700  22.9048613 101.2257830  71.1775021  23.4766400 102.6104692
  63.6460660  31.6745661  99.3692019  63.8212415  31.2033704 100.1837641
  62.9593448  32.3011427  99.5973279  67.5376915  23.2974202  95.6892379
  66.9206085  22.5721030  95.5925432  67.0693403  24.0583562  95.3459454
  58.2121745  34.8235024 106.1431879  58.4518343  35.4553548 106.8210897
  57.3690942  34.4723064 106.4297238  59.3275461  17.5159626  94.8113684
  58.4504927  17.3948427  94.4475930  59.8033214  16.7245704  94.5592572
  62.5139387  29.8685916 102.0576204  61.7306908  30.4107597 102.1514429
  63.2132132  30.3859896 102.4570445  66.9065817  24.4352233 102.2748833
  65.9722096  24.5553696 102.1053537  67.0842486  23.5324700 102.0108843
  70.2938369  20.2769552 102.8098867  70.7598821  21.1097544 102.7359170
  70.7445869  19.8114534 103.5144126  68.3614600  26.6213374  99.8085019
  68.6374444  26.5069968 100.7178893  67.4919099  26.2230859  99.7697192
  64.9968664  30.8699725 103.4517833  65.1791058  30.0521380 103.9145585
  65.8201650  31.0867417 103.0142723  65.3310829  29.7967910 100.7132881
  65.8598596  29.2860364 100.1003043  65.5939049  29.4810440 101.5778414
  58.6866577  30.8483026 103.4730657  58.0176953  31.3329154 102.9894697
  58.5479447  31.0952247 104.3874036  65.9640233  30.8308745 107.0576998
  65.8391373  30.0298485 106.5487943  66.6219324  31.3254939 106.5690968
  65.0321575  28.4270482 104.8860900  64.8846537  27.4987189 105.0668470
  65.8575068  28.4490572 104.4017975  68.6355697  29.2499040 105.9725773
  69.5602244  29.0441902 105.8350224  68.4671000  29.0015442 106.8815114
  65.0283089  16.2808319  99.8793017  65.2446704  17.1632957  99.5781845
  64.5477156  15.8894533  99.1498659  68.4251013  29.7684708 101.3287864
  68.5987890  29.2031130 100.5761717  68.9179904  30.5685603 101.1467354
  69.4126185  29.0851472  98.4284763  70.1077090  29.7058165  98.6472077
  69.7549336  28.2346824  98.7037140  71.3117608  26.5351178  99.9572093
  71.8368933  26.8738451  99.2321413  71.2239961  25.5998193  99.7735228
  62.9958269  32.6023161 104.3167347  62.5563260  32.1099540 105.0100203
  63.7466386  32.0596129 104.0759422  60.0045648  26.6965094  99.8648109
  60.1533769  27.3800558  99.2114781  60.8112092  26.6770184 100.3797564
  63.5041054  29.1913224  97.3359856  62.9315021  29.8103411  96.8830328
  64.0773847  29.7412586  97.8699778  66.7238314  29.4750374  98.4668438
  67.6568987  29.4095936  98.6701314  66.6361526  30.3106641  98.0082971
  69.3526330  28.7916244  95.4272386  69.2739962  28.4576108  96.3208144
  70.1735997  29.2838012  95.4263858  63.8887852  20.5274037  94.6775909
  64.8346957  20.3980245  94.7464327  63.5102097  19.7888699  95.1545337
  62.0730769  18.4524013  94.6130794  61.1662225  18.1557126  94.6893507
  62.3506750  18.1553831  93.7465080  60.8429554  15.3110948  94.7542773
  61.7048718  15.6365847  95.0138590  61.0279898  14.5242444  94.2415839
  67.7787069  16.3439565 100.9534344  66.8912924  16.6289216 100.7354539
  68.1941058  16.1833329 100.1061621  66.9230282  26.1084240  95.0482364
  67.6266132  26.3134242  95.6640020  66.1992931  26.6761002  95.3131448
  67.7528092  21.8594101 101.1684634  67.6963294  22.3162653 100.3292267
  68.3056435  21.0984786 100.9907477  58.9440445  31.8216633 106.2524232
  58.8272829  32.7662066 106.1502922  58.1232891  31.5190195 106.6410031
  68.8316979  26.5466769  97.0980824  69.6662583  26.1147968  96.9158299
  68.6701322  26.3748783  98.0257719  68.4862872  23.0498882  98.4637164
  68.4311675  22.8843154  97.5225608  67.8608927  23.7574915  98.6199353
  61.7248561  31.2275882 106.1290239  60.7744192  31.2277743 106.0154611
  62.0281047  30.4808616 105.6126273  77.4601255  37.0636420 107.1936001
  78.0979665  36.9443168 106.4899341  77.3422097  38.0117264 107.2523953
  74.2690961  37.0163848 107.1297526  73.9309472  36.9004913 106.2418061
  75.1380729  36.6155013 107.1098532  70.1277777  38.8699325 103.1194417
  69.5642642  38.7789262 102.3510705  70.0130172  38.0499229 103.5996909
  67.6742208  40.3650516 105.9578637  68.4663500  40.0241341 105.5424937
  67.9138859  40.4745491 106.8780791  75.7077335  42.5370292  98.4308882
  75.0565315  43.1224373  98.0442895  76.5021698  43.0676487  98.4903919
  69.6332962  39.6259430  98.8296016  70.4063838  39.0788417  98.6908892
  69.9858361  40.4903679  99.0410477  71.4718005  40.9535812 112.0362915
  71.1807871  41.8581443 111.9209582  72.1074989  40.9952339 112.7506985
  72.3974212  38.3312660 108.6264275  72.9937784  38.1068683 107.9121238
  72.4549183  37.5897406 109.2289723  71.9699240  35.7852096  96.4614466
  72.2224761  35.2633617  95.6997929  71.0323799  35.6218241  96.5641150
  77.0142523  34.7887874 104.2689209  77.8005612  34.3707297 103.9179626
  77.2781227  35.6933966 104.4370858  77.1852600  40.2260724  98.9677866
  76.5498433  40.2995351  99.6798771  76.8550007  40.8154323  98.2896945
  71.6895529  37.6880202  98.6638841  71.5731787  37.0125105  99.3319925
  71.7997789  37.2012576  97.8470994  74.0327070  37.1490349 102.3685530
  73.6685277  36.6220970 103.0798452  74.8894186  36.7588818 102.1952016
  73.6732557  32.1780248  97.3646879  73.8406959  33.0460485  97.7317350
  73.4829726  32.3407530  96.4408168  76.4307890  40.6397227 109.0312709
  76.1308613  41.5422266 108.9228516  76.0858950  40.3729411 109.8833862
  69.8820372  37.0911024 105.0649413  68.9570868  36.9587238 105.2727105
  70.1304785  37.8705243 105.5619356  73.6521778  34.6337906  98.3493545
  73.5321403  35.0794957  99.1879026  72.9574366  34.9823224  97.7907084
  67.2429183  36.7344298 105.8993203  67.3721564  36.9878777 106.8132614
  66.5626634  37.3272006 105.5797858  71.4128670  47.4041548 101.9983677
  71.3352700  48.3549373 102.0772157  70.8090313  47.0587420 102.6558603
  79.3506844  35.1059379  99.1773880  80.2624700  35.3386766  99.0021577
  78.8416491  35.6896423  98.6148958  77.9576426  40.0885198 106.5687461
  77.3285289  40.2530912 105.8663529  77.5702088  40.5026807 107.3398425
  81.8365658  41.0239635 103.9231825  81.1516696  41.4038537 103.3728858
  81.9209507  41.6334962 104.6563772  73.5104388  39.8259606 103.8337546
  73.9742734  40.1047309 103.0442169  73.2461186  38.9243050 103.6510637
  70.4028469  39.3731087 106.7717309  70.9729826  39.8018356 106.1334794
  70.9936581  39.0913672 107.4701495  72.4473274  35.9482758 100.6427111
  73.1497317  36.4003802 101.1101038  72.1153903  35.3066577 101.2707004
  66.1898608  34.2066311 105.9444245  65.3997662  34.4623839 105.4684355
  66.6809855  35.0214649 106.0496285  68.1413353  34.5710890 102.9027721
  67.3444517  34.6829584 103.4211217  67.9138946  34.9097542 102.0368612
  73.9719021  41.0955593 110.8510236  74.0363454  41.5576000 111.6868408
  73.2629945  40.4652958 110.9792546  64.4736311  34.4596801 108.3759236
  64.7244350  35.3443811 108.6416812  65.0095859  34.2801403 107.6034327
  73.6867039  42.7623701 100.7189216  73.5512714  43.6075236 101.1474064
  74.2276851  42.9642978  99.9555150  67.1396436  40.2799139 101.2917142
  67.6520957  41.0742389 101.4422706  67.7919149  39.5825429 101.2250743
  68.9491321  43.3964895 103.3739895  69.1257949  44.3182860 103.1860879
  69.7448154  43.0823314 103.8034274  70.0722636  44.9143069 109.3750237
  70.6230061  44.7860132 108.6027231  69.2334112  45.2137958 109.0245130
  65.1045353  38.6087793 102.0676712  65.9420575  39.0184801 101.8510420
  65.2823621  37.6687235 102.0376906  77.0009785  36.2762874  97.7560545
  76.4856408  37.0467478  97.9948932  76.7287094  35.6028010  98.3793606
  74.5856896  31.1212574 102.8145783  73.7298492  30.7319425 102.6351422
  74.9983848  31.2004535 101.9545569  72.3598929  28.7397647 106.2203525
  73.2251925  28.5440456 105.8609414  72.4276438  28.5107999 107.1472882
  81.9744059  39.0295228  99.6913718  81.1973502  38.6906388  99.2468881
  82.6535540  39.0347851  99.0168684  76.7896088  34.1489966  99.5820326
  76.4846224  34.4636115 100.4330469  77.7426530  34.2271386  99.6247659
  75.2342520  40.3080189 101.2313280  74.7063882  39.5732949 100.9186518
  74.7330023  41.0854865 100.9853249  80.2135366  38.5029210 106.3480326
  79.5559041  39.1928471 106.4360455  81.0175765  38.8925641 106.6914313
  69.9661248  30.9699855 103.5919892  70.5405000  30.7475037 102.8593085
  70.5532230  31.0388550 104.3448493  79.0240825  36.8573582 104.3984268
  79.5372707  37.4903574 104.9005978  79.6742049  36.2574778 104.0327628
  70.2930835  33.0004316  97.6115777  69.4568147  33.3379003  97.9325052
  70.1535604  32.8653296  96.6742914  72.2683915  27.8441104 102.3194961
  71.6148328  27.5290121 101.6951576  72.2264390  27.2216845 103.0454784
  73.3795120  38.1260399  94.2348253  72.4722182  37.8949653  94.4339402
  73.8766152  37.3298019  94.4222235  76.2863199  46.8357906  97.1544939
  75.6124898  47.1389603  97.7629897  76.6729021  47.6386987  96.8050396
  75.5021656  34.3323038 106.6442609  74.5844217  34.5537985 106.4864297
  75.9181799  34.4069348 105.7854316  76.2856704  35.7314453 101.7745289
  77.0328522  36.2435851 101.4652411  76.5548293  35.4098506 102.6349683
  74.5583354  38.2272994  98.7572243  73.6494573  37.9432027  98.8544713
  74.5878437  38.6472073  97.8975550  79.7902621  41.8379584 102.5263411
  79.3364948  40.9970494 102.5828601  79.1596588  42.4740982 102.8638191
  78.7335541  32.7671570 103.7564078  77.9958297  32.2548956 104.0874321
  78.9862314  32.3271951 102.9447355  78.2335560  43.6756080 103.4613229
  78.5258535  44.2361137 102.7425595  78.7434181  43.9684641 104.2166388
  65.1271524  35.9478508 102.7387446  64.9295924  35.3547869 102.0138512
  64.5718188  35.6430718 103.4563384  73.1068248  35.8401615 104.8582039
  73.1616858  34.8875451 104.7824515  72.2959450  35.9961054 105.3423337
  74.2559441  39.7681738  96.0960322  73.8178871  39.0517597  95.6365959
  74.9969882  39.9957853  95.5345413  71.0460608  34.4578675 102.6172418
  70.2328473  34.7572845 103.0237610  71.5419602  34.0634363 103.3346900
  73.1969186  44.4536431 104.5506682  73.1545364  44.6797278 103.6215214
  74.1131884  44.2199806 104.6992483  82.3732556  38.0438935 102.1536640
  82.2350455  38.2340531 101.2257830  82.0168775  38.8058318 102.6104692
  70.5374682  32.0297030 108.2333652  71.1774062  31.8885789 107.5356616
  69.7052213  31.7431543 107.8572254  71.3134986  41.3299460 104.3468645
  72.1075585  40.8349781 104.1451220  70.6026679  40.8017324 103.9836350
  76.1329831  43.7117556 108.6981013  76.1866853  44.2808492 109.4658728
  75.2644612  43.8819441 108.3335050  67.6217750  35.4742542 100.4228398
  66.6915338  35.4126998 100.6398360  67.7175222  34.9518495  99.6265039
  67.5403299  31.9997355 103.0106639  67.8010116  32.9142688 102.9015800
  68.3620471  31.5321798 103.1603252  69.0128224  33.4135112 110.1805464
  69.6851278  33.2052474 109.5318113  68.1858011  33.2157198 109.7410696
  75.0917931  37.8777818 110.2567944  76.0209991  38.0288978 110.0836912
  74.6708961  37.9661839 109.4016591  73.8906262  41.9028482 108.0266482
  73.7517348  41.5347267 108.8992420  73.1020859  42.4176122 107.8550440
  74.4854414  47.0037579  99.3692019  74.6606170  46.5325622 100.1837641
  73.7987202  47.6303345  99.5973279  75.4411477  41.2810085 105.4155320
  75.1061310  41.2410855 106.3112970  74.9415423  40.6154801 104.9425730
  69.4155721  36.6877715 110.9407901  69.2775519  35.9557954 111.5419440
  70.3260645  36.5986615 110.6592089  78.3770669  38.6266119  95.6892379
  77.7599840  37.9012948  95.5925432  77.9087158  39.3875480  95.3459454
  72.0438022  36.3997674 110.4291581  72.7537641  35.7590867 110.3878199
  72.0007330  36.6510569 111.3517761  69.0515500  50.1526942 106.1431879
  69.2912098  50.7845466 106.8210897  68.2084696  49.8014982 106.4297238
  70.1669215  32.8451544  94.8113684  69.2898681  32.7240345  94.4475930
  70.6426968  32.0537622  94.5592572  61.6871355  37.6328704 104.9055191
  62.3742395  37.3190434 104.3176206  61.5319484  38.5370068 104.6322442
  66.4906077  32.5218900 109.3340215  66.4064266  31.9144570 108.5990625
  65.6688784  33.0127918 109.3349711  73.5643361  45.9606064 108.5473383
  73.4913533  46.7661036 109.0592687  73.1220755  46.1598030 107.7221404
  73.3533141  45.1977834 102.0576204  72.5700663  45.7399514 102.1514429
  74.0525886  45.7151814 102.4570445  76.6629791  31.0072464 104.7010410
  77.1598491  30.2542426 104.3811480  75.8916773  31.0436780 104.1353619
  77.7459572  39.7644151 102.2748833  76.8115851  39.8845613 102.1053537
  77.9236240  38.8616618 102.0108843  73.2464760  33.1489847 104.4282094
  72.8762547  32.5960887 105.1163000  73.7423852  32.5447980 103.8757094
  81.1332123  35.6061470 102.8098867  81.5992575  36.4389462 102.7359170
  81.5839624  35.1406452 103.5144126  71.0753958  43.6087342 111.5237112
  71.7763418  44.2423825 111.6766506  70.6049073  43.9502073 110.7632751
  79.2008354  41.9505291  99.8085019  79.4768198  41.8361886 100.7178893
  78.3312853  41.5522776  99.7697192  75.8362418  46.1991642 103.4517833
  76.0184813  45.3813298 103.9145585  76.6595404  46.4159334 103.0142723
  76.1704584  45.1259827 100.7132881  76.6992350  44.6152282 100.1003043
  76.4332803  44.8102358 101.5778414  66.6721677  43.1423697 108.4568215
  67.2575113  42.3967385 108.5896119  66.4746515  43.4527653 109.3404879
  69.5260332  46.1774944 103.4730657  68.8570707  46.6621072 102.9894697
  69.3873201  46.4244164 104.3874036  61.2639331  35.7129297 107.1772658
  61.3023431  35.1792888 107.9709776  60.7579624  35.1864502 106.5583635
  64.8947909  34.4393399 100.2526589  65.1901350  33.5304077 100.1993643
  63.9935945  34.4181138  99.9307592  76.8033988  46.1600663 107.0576998
  76.6785127  45.3590403 106.5487943  77.4613079  46.6546856 106.5690968
  68.4242156  32.5149396 106.2354138  67.7028742  33.1285363 106.0961611
  69.2135412  33.0507160 106.1570784  78.8668896  43.9609683 108.6856548
  77.9199232  43.8415034 108.6134875  79.2151669  43.0732181 108.7682809
  66.6235750  32.1207497 100.3765915  66.2948457  31.2404876 100.1941020
  66.9775121  32.0655165 101.2642304  75.8715329  43.7562399 104.8860900
  75.7240292  42.8279107 105.0668470  76.6968823  43.7782490 104.4017975
  69.7377574  32.4080466 100.7441392  70.0773646  32.9366388 100.0220001
  70.1849694  32.7460873 101.5199959  79.4749451  44.5790958 105.9725773
  80.3995999  44.3733819 105.8350224  79.3064755  44.3307359 106.8815114
  71.7245721  30.9055088  98.9434685  72.4454083  31.2836341  98.4398402
  71.1011025  31.6243965  99.0469663  75.8676844  31.6100237  99.8793017
  76.0840458  32.4924875  99.5781845  75.3870911  31.2186450  99.1498659
  70.6076065  34.5685950 106.4563762  70.4620646  34.8826253 107.3488043
  70.1301269  35.1870851 105.9034661  72.4672448  31.5588498 106.5044651
  72.4534017  30.6629592 106.1676949  73.1844876  31.5659162 107.1382938
  79.2644767  45.0976626 101.3287864  79.4381645  44.5323048 100.5761717
  79.7573659  45.8977520 101.1467354  65.0821727  37.1091295 109.3951423
  64.5375195  37.8851103 109.5271697  65.9601077  37.4562099 109.2370545
  71.8709344  30.4402879 101.7732222  71.9925255  29.5119525 101.9723109
  71.5811386  30.4541565 100.8610537  74.7400534  28.1257789 104.9098941
  74.7622231  28.1897122 103.9550921  75.1568593  27.2862298 105.1039448
  80.2519940  44.4143390  98.4284763  80.9470844  45.0350083  98.6472077
  80.5943090  43.5638741  98.7037140  82.1511363  41.8643096  99.9572093
  82.6762687  42.2030368  99.2321413  82.0633716  40.9290111  99.7735228
  73.8352024  47.9315079 104.3167347  73.3957014  47.4391457 105.0100203
  74.5860141  47.3888046 104.0759422  66.3144363  44.1226620 104.3191975
  67.1402383  43.8230392 103.9390618  65.9638415  43.3534242 104.7681763
  71.2825896  43.4753088 106.3889648  70.6605905  42.8123793 106.0891876
  71.9530763  43.5014220 105.7063296  64.5152968  42.0412946 105.2780908
  63.6784876  41.6135120 105.0964909  64.4876613  42.2345389 106.2151699
  70.8439403  42.0257011  99.8648109  70.9927523  42.7092476  99.2114781
  71.6505846  42.0062101 100.3797564  68.5992036  38.0522189 100.8709178
  68.3538078  37.1484519 101.0689388  68.7687950  38.0539339  99.9288656
  67.8687683  33.7850546  98.3695339  67.1756928  33.8594901  97.7135375
  67.6239435  33.0210890  98.8916856  74.3434808  44.5205142  97.3359856
  73.7708775  45.1395329  96.8830328  74.9167602  45.0704503  97.8699778
  77.5632068  44.8042292  98.4668438  78.4962741  44.7387853  98.6701314
  77.4755281  45.6398559  98.0082971  80.1920085  44.1208162  95.4272386
  80.1133716  43.7868026  96.3208144  81.0129752  44.6129930  95.4263858
  74.7281607  35.8565954  94.6775909  75.6740712  35.7272163  94.7464327
  74.3495852  35.1180616  95.1545337  72.9124524  33.7815931  94.6130794
  72.0055979  33.4849044  94.6893507  73.1900505  33.4845749  93.7465080
  63.8302464  35.1022294 105.0629840  63.5105249  34.2487602 104.7704214
  63.2835893  35.3170872 105.8187808  67.6082372  37.8184735 108.7799347
  67.8268382  38.7501843 108.7987381  68.0208146  37.4592710 109.5654151
  74.5286590  28.3252821 100.7675035  73.7187318  27.9799905 101.1430281
  75.2171007  28.0160364 101.3562647  76.4577138  27.4030867 102.3899332
  77.0108177  27.8226321 103.0489355  76.6947224  26.4766615 102.4322288
  71.6823309  30.6402866  94.7542773  72.5442473  30.9657764  95.0138590
  71.8673653  29.8534362  94.2415839  63.6990724  38.7225206 107.0322962
  63.0054196  38.3079159 106.5192916  64.4463715  38.7645742 106.4356381
  79.8355945  29.5131392 101.8977996  79.2554614  30.1716197 101.5156048
  79.5691878  28.6908737 101.4865414  65.6127467  38.6543459 104.9088977
  65.5898155  38.7531147 103.9570860  65.9228103  39.5008610 105.2306143
  68.2714845  40.7119615 109.0235591  69.2258098  40.6803557 108.9565523
  68.0727368  40.2510238 109.8385817  68.8614227  39.2820731 111.5906389
  69.6807116  39.7764809 111.6141226  69.1351035  38.3652699 111.5623956
  78.6180823  31.6731483 100.9534344  77.7306678  31.9581133 100.7354539
  79.0334812  31.5125246 100.1061621  66.6265074  46.2539234 106.0405789
  66.4919541  45.4939635 105.4743787  66.2097136  46.9780134 105.5734578
  77.7624037  41.4376158  95.0482364  78.4659887  41.6426160  95.6640020
  77.0386685  42.0052919  95.3131448  78.5921847  37.1886019 101.1684634
  78.5357048  37.6454570 100.3292267  79.1450189  36.4276703 100.9907477
  69.7834199  47.1508551 106.2524232  69.6666584  48.0953984 106.1502922
  68.9626646  46.8482113 106.6410031  79.6710734  41.8758687  97.0980824
  80.5056338  41.4439885  96.9158299  79.5095077  41.7040700  98.0257719
  79.3256626  38.3790800  98.4637164  79.2705430  38.2135071  97.5225608
  78.7002681  39.0866833  98.6199353  72.6352752  27.8798909  98.0422482
  72.6231421  28.8240749  98.1990753  73.5276173  27.6969054  97.7481943
  70.8088714  47.8036813 109.4680160  71.7115960  47.8360423 109.7846655
  70.5826084  46.8737264 109.4826496  72.5642316  46.5567799 106.1290239
  71.6137947  46.5569661 106.0154611  72.8674802  45.8100534 105.6126273
  80.9671531  54.1991242 103.1194417  80.4036396  54.1081179 102.3510705
  80.8523926  53.3791147 103.5996909  86.5471090  57.8662210  98.4308882
  85.8959069  58.4516290  98.0442895  87.3415453  58.3968405  98.4903919
  80.4726717  54.9551347  98.8296016  81.2457593  54.4080334  98.6908892
  80.8252116  55.8195597  99.0410477  82.8092995  51.1144013  96.4614466
  83.0618515  50.5925535  95.6997929  81.8717554  50.9510159  96.5641150
  88.0246355  55.5552642  98.9677866  87.3892188  55.6287269  99.6798771
  87.6943761  56.1446241  98.2896945  82.5289283  53.0172119  98.6638841
  82.4125542  52.3417023  99.3319925  82.6391543  52.5304493  97.8470994
  84.8720824  52.4782266 102.3685530  84.5079032  51.9512887 103.0798452
  85.7287940  52.0880735 102.1952016  84.5126311  47.5072166  97.3646879
  84.6800714  48.3752403  97.7317350  84.3223480  47.6699448  96.4408168
  84.4915532  49.9629824  98.3493545  84.3715157  50.4086874  99.1879026
  83.7968121  50.3115141  97.7907084  90.1900598  50.4351297  99.1773880
  91.1018455  50.6678684  99.0021577  89.6810245  51.0188341  98.6148958
  83.2867029  51.2774676 100.6427111  83.9891072  51.7295719 101.1101038
  82.9547657  50.6358495 101.2707004  77.0292363  49.5358228 105.9444245
  76.2391417  49.7915757 105.4684355  77.5203610  50.3506566 106.0496285
  78.9807108  49.9002808 102.9027721  78.1838271  50.0121502 103.4211217
  78.7532700  50.2389460 102.0368612  77.9790191  55.6091056 101.2917142
  78.4914711  56.4034307 101.4422706  78.6312903  54.9117347 101.2250743
  75.9439107  53.9379711 102.0676712  76.7814329  54.3476719 101.8510420
  76.1217375  52.9979153 102.0376906  87.8403540  51.6054791  97.7560545
  87.3250163  52.3759396  97.9948932  87.5680848  50.9319927  98.3793606
  85.4250651  46.4504492 102.8145783  84.5692247  46.0611342 102.6351422
  85.8377602  46.5296453 101.9545569  83.1992683  44.0689565 106.2203525
  84.0645680  43.8732374 105.8609414  83.2670192  43.8399917 107.1472882
  87.6289843  49.4781883  99.5820326  87.3239978  49.7928033 100.4330469
  88.5820285  49.5563303  99.6247659  86.0736275  55.6372107 101.2313280
  85.5457636  54.9024866 100.9186518  85.5723777  56.4146783 100.9853249
  80.8055002  46.2991773 103.5919892  81.3798754  46.0766954 102.8593085
  81.3925985  46.3680468 104.3448493  81.1324589  48.3296234  97.6115777
  80.2961902  48.6670921  97.9325052  80.9929359  48.1945214  96.6742914
  83.1077670  43.1733022 102.3194961  82.4542082  42.8582039 101.6951576
  83.0658144  42.5508762 103.0454784  84.2188875  53.4552317  94.2348253
  83.3115936  53.2241570  94.4339402  84.7159907  52.6589936  94.4222235
  87.1250458  51.0606371 101.7745289  87.8722277  51.5727768 101.4652411
  87.3942048  50.7390424 102.6349683  85.3977108  53.5564912  98.7572243
  84.4888327  53.2723945  98.8544713  85.4272192  53.9763990  97.8975550
  89.5729295  48.0963487 103.7564078  88.8352052  47.5840874 104.0874321
  89.8256069  47.6563869 102.9447355  75.9665279  51.2770426 102.7387446
  75.7689678  50.6839787 102.0138512  75.4111943  50.9722636 103.4563384
  85.0953196  55.0973656  96.0960322  84.6572626  54.3809514  95.6365959
  85.8363637  55.3249770  95.5345413  81.8854362  49.7870592 102.6172418
  81.0722228  50.0864763 103.0237610  82.3813356  49.3926281 103.3346900
  78.4611504  50.8034460 100.4228398  77.5309092  50.7418915 100.6398360
  78.5568976  50.2810413  99.6265039  78.3797053  47.3289273 103.0106639
  78.6403871  48.2434606 102.9015800  79.2014226  46.8613715 103.1603252
  89.2164424  53.9558037  95.6892379  88.5993594  53.2304865  95.5925432
  88.7480912  54.7167397  95.3459454  81.0062970  48.1743461  94.8113684
  80.1292436  48.0532262  94.4475930  81.4820723  47.3829540  94.5592572
  72.5265110  52.9620621 104.9055191  73.2136149  52.6482351 104.3176206
  72.3713238  53.8661986 104.6322442  77.3299832  47.8510818 109.3340215
  77.2458021  47.2436487 108.5990625  76.5082538  48.3419836 109.3349711
  87.5023546  46.3364381 104.7010410  87.9992245  45.5834344 104.3811480
  86.7310527  46.3728698 104.1353619  84.0858514  48.4781764 104.4282094
  83.7156302  47.9252805 105.1163000  84.5817607  47.8739898 103.8757094
  72.1033086  51.0421215 107.1772658  72.1417185  50.5084805 107.9709776
  71.5973379  50.5156420 106.5583635  75.7341663  49.7685317 100.2526589
  76.0295104  48.8595995 100.1993643  74.8329699  49.7473056  99.9307592
  79.2635910  47.8441313 106.2354138  78.5422496  48.4577281 106.0961611
  80.0529166  48.3799078 106.1570784  77.4629505  47.4499414 100.3765915
  77.1342211  46.5696793 100.1941020  77.8168876  47.3947083 101.2642304
  80.5771328  47.7372384 100.7441392  80.9167401  48.2658305 100.0220001
  81.0243449  48.0752790 101.5199959  82.5639475  46.2347006  98.9434685
  83.2847838  46.6128259  98.4398402  81.9404779  46.9535883  99.0469663
  86.7070598  46.9392155  99.8793017  86.9234213  47.8216793  99.5781845
  86.2264665  46.5478368  99.1498659  83.3066202  46.8880416 106.5044651
  83.2927771  45.9921509 106.1676949  84.0238630  46.8951080 107.1382938
  82.7103098  45.7694796 101.7732222  82.8319010  44.8411442 101.9723109
  82.4205141  45.7833482 100.8610537  85.5794289  43.4549707 104.9098941
  85.6015986  43.5189040 103.9550921  85.9962348  42.6154215 105.1039448
  81.6833157  57.3548929  99.8648109  81.8321278  58.0384393  99.2114781
  82.4899601  57.3354019 100.3797564  79.4385790  53.3814107 100.8709178
  79.1931832  52.4776437 101.0689388  79.6081705  53.3831257  99.9288656
  78.7081438  49.1142464  98.3695339  78.0150683  49.1886819  97.7135375
  78.4633190  48.3502808  98.8916856  85.1828563  59.8497059  97.3359856
  84.6102530  60.4687246  96.8830328  85.7561356  60.3996421  97.8699778
  91.0313839  59.4500080  95.4272386  90.9527471  59.1159943  96.3208144
  91.8523506  59.9421848  95.4263858  85.5675361  51.1857872  94.6775909
  86.5134466  51.0564080  94.7464327  85.1889606  50.4472534  95.1545337
  83.7518278  49.1107848  94.6130794  82.8449734  48.8140961  94.6893507
  84.0294259  48.8137667  93.7465080  74.6696219  50.4314212 105.0629840
  74.3499003  49.5779520 104.7704214  74.1229647  50.6462790 105.8187808
  85.3680344  43.6544738 100.7675035  84.5581072  43.3091823 101.1430281
  86.0564761  43.3452282 101.3562647  87.2970892  42.7322785 102.3899332
  87.8501931  43.1518238 103.0489355  87.5340979  41.8058533 102.4322288
  82.5217063  45.9694784  94.7542773  83.3836227  46.2949682  95.0138590
  82.7067407  45.1826280  94.2415839  90.6749700  44.8423310 101.8977996
  90.0948369  45.5008114 101.5156048  90.4085632  44.0200655 101.4865414
  76.4521221  53.9835377 104.9088977  76.4291909  54.0823064 103.9570860
  76.7621858  54.8300528 105.2306143  89.4574578  47.0023401 100.9534344
  88.5700433  47.2873051 100.7354539  89.8728567  46.8417164 100.1061621
  88.6017791  56.7668075  95.0482364  89.3053641  56.9718078  95.6640020
  87.8780440  57.3344837  95.3131448  89.4315601  52.5177936 101.1684634
  89.3750803  52.9746488 100.3292267  89.9843944  51.7568621 100.9907477
  90.5104488  57.2050604  97.0980824  91.3450092  56.7731803  96.9158299
  90.3488831  57.0332618  98.0257719  90.1650381  53.7082718  98.4637164
  90.1099184  53.5426989  97.5225608  89.5396436  54.4158751  98.6199353
  83.4746506  43.2090827  98.0422482  83.4625176  44.1532667  98.1990753
  84.3669928  43.0260972  97.7481943  64.8683582   4.2140497  85.1554188
  64.2171562   4.7994578  84.7688202  65.6627945   4.7446692  85.2149226
  58.7939209   1.3029634  85.5541323  59.5670085   0.7558622  85.4154198
  59.1464608   2.1673884  85.7655784  60.5734917   9.0811753  88.7228983
  60.4958946  10.0319578  88.8017464  59.9696560   8.7357625  89.3803910
  62.6710635   1.5029811  90.5582853  63.1348980   1.7817514  89.7687475
  62.4067433   0.6013255  90.3755943  62.8473286   4.4393906  87.4434523
  62.7118960   5.2845441  87.8719371  63.3883098   4.6413183  86.6800457
  56.3002683   1.9569344  88.0162448  56.8127203   2.7512594  88.1668013
  56.9525396   1.2595634  87.9496050  58.1097568   5.0735100  90.0985201
  58.2864196   5.9953065  89.9106185  58.9054401   4.7593519  90.5279581
  64.3948767   1.9850394  87.9558587  63.8670128   1.2503154  87.6431824
  63.8936270   2.7625070  87.7098555  65.4469446   8.5128111  83.8790246
  64.7731145   8.8159808  84.4875204  65.8335268   9.3157192  83.5295703
  67.3941807   5.3526285  90.1858536  67.6864781   5.9131342  89.4670901
  67.9040428   5.6454846  90.9411695  62.3575432   6.1306636  91.2751989
  62.3151611   6.3567483  90.3460521  63.2738131   5.8970011  91.4237790
  63.6460661   8.6807784  86.0937325  63.8212417   8.2095827  86.9082948
  62.9593449   9.3073550  86.3218586  58.2121746  11.8297147  92.8677185
  58.4518345  12.4615671  93.5456204  57.3690943  11.4785187  93.1542545
  62.5139388   6.8748039  88.7821511  61.7306910   7.4169719  88.8759735
  63.2132133   7.3922019  89.1815752  68.3614601   3.6275496  86.5330326
  68.6374445   3.5132091  87.4424200  67.4919100   3.2292981  86.4942499
  64.9968665   7.8761847  90.1763139  65.1791060   7.0583503  90.6390892
  65.8201651   8.0929539  89.7388029  65.3310831   6.8030032  87.4378188
  65.8598597   6.2922487  86.8248350  65.5939050   6.4872563  88.3023721
  58.6866579   7.8545149  90.1975964  58.0176954   8.3391277  89.7140004
  58.5479448   8.1014369  91.1119342  65.9640234   7.8370868  93.7822304
  65.8391374   7.0360608  93.2733250  66.6219326   8.3317061  93.2936274
  65.0321576   5.4332604  91.6106207  64.8846539   4.5049312  91.7913777
  65.8575070   5.4552695  91.1263282  68.6355698   6.2561163  92.6971079
  69.5602245   6.0504024  92.5595531  68.4671001   6.0077564  93.6060421
  68.4251014   6.7746830  88.0533171  68.5987892   6.2093253  87.3007023
  68.9179905   7.5747725  87.8712661  69.4126187   6.0913595  85.1530069
  70.1077091   6.7120288  85.3717384  69.7549337   5.2408946  85.4282447
  62.9958270   9.6085284  91.0412653  62.5563261   9.1161662  91.7345510
  63.7466387   9.0658251  90.8004728  60.0045650   3.7027216  86.5893415
  60.1533770   4.3862681  85.9360088  60.8112093   3.6832306  87.1042871
  63.5041055   6.1975347  84.0605163  62.9315022   6.8165534  83.6075635
  64.0773849   6.7474708  84.5945085  66.7238315   6.4812497  85.1913745
  67.6568988   6.4158058  85.3946621  66.6361528   7.3168764  84.7328278
  69.3526332   5.7978367  82.1517693  69.2739963   5.4638231  83.0453451
  70.1735998   6.2900135  82.1509165  66.9230283   3.1146362  81.7727671
  67.6266133   3.3196365  82.3885327  66.1992932   3.6823124  82.0376754
  58.9440446   8.8278756  92.9769538  58.8272830   9.7724188  92.8748229
  58.1232892   8.5252318  93.3655338  68.8316981   3.5528892  83.8226131
  69.6662585   3.1210090  83.6403606  68.6701324   3.3810905  84.7503025
  61.7248562   8.2338004  92.8535545  60.7744193   8.2339866  92.7399918
  62.0281048   7.4870739  92.3371580  77.4601256  14.0698543  93.9181308
  78.0979666  13.9505290  93.2144648  77.3422099  15.0179387  93.9769260
  74.2690962  14.0225971  93.8542832  73.9309474  13.9067036  92.9663367
  75.1380730  13.6217136  93.8343839  70.1277778  15.8761447  89.8439723
  69.5642643  15.7851384  89.0756011  70.0130173  15.0561352  90.3242216
  67.6742210  17.3712639  92.6823944  68.4663502  17.0303464  92.2670243
  67.9138860  17.4807614  93.6026097  75.7077337  19.5432415  85.1554188
  75.0565316  20.1286495  84.7688202  76.5021699  20.0738610  85.2149226
  69.6332964  16.6321552  85.5541323  70.4063840  16.0850539  85.4154198
  69.9858363  17.4965801  85.7655784  71.4718006  17.9597934  98.7608222
  71.1807872  18.8643565  98.6454888  72.1074991  18.0014462  99.4752292
  72.3974213  15.3374783  95.3509582  72.9937785  15.1130805  94.6366545
  72.4549185  14.5959528  95.9535029  71.9699241  12.7914218  83.1859773
  72.2224762  12.2695740  82.4243236  71.0323801  12.6280364  83.2886456
  77.0142524  11.7949997  90.9934516  77.8005614  11.3769420  90.6424933
  77.2781229  12.6996089  91.1616164  77.1852602  17.2322847  85.6923173
  76.5498435  17.3057473  86.4044077  76.8550008  17.8216446  85.0142252
  71.6895530  14.6942324  85.3884148  71.5731788  14.0187228  86.0565232
  71.7997790  14.2074698  84.5716301  74.0327071  14.1552471  89.0930837
  73.6685278  13.6283092  89.8043758  74.8894187  13.7650940  88.9197322
  73.6732558   9.1842371  84.0892185  73.8406960  10.0522607  84.4562656
  73.4829727   9.3469653  83.1653475  76.4307891  17.6459350  95.7558016
  76.1308614  18.5484389  95.6473823  76.0858951  17.3791533  96.6079169
  69.8820373  14.0973147  91.7894720  68.9570869  13.9649361  91.9972412
  70.1304786  14.8767366  92.2864662  73.6521779  11.6400029  85.0738852
  73.5321404  12.0857079  85.9124332  72.9574367  11.9885346  84.5152390
  67.2429184  13.7406420  92.6238509  67.3721565  13.9940899  93.5377921
  66.5626635  14.3334128  92.3043164  71.4128671  24.4103670  88.7228983
  71.3352701  25.3611495  88.8017464  70.8090315  24.0649543  89.3803910
  79.3506845  12.1121502  85.9019186  80.2624701  12.3448888  85.7266884
  78.8416492  12.6958546  85.3394265  77.9576427  17.0947320  93.2932768
  77.3285290  17.2593034  92.5908835  77.5702090  17.5088930  94.0643732
  81.8365659  18.0301758  90.6477131  81.1516698  18.4100659  90.0974165
  81.9209509  18.6397085  91.3809079  73.5104389  16.8321728  90.5582853
  73.9742735  17.1109431  89.7687475  73.2461187  15.9305173  90.3755943
  70.4028470  16.3793210  93.4962616  70.9729827  16.8080478  92.8580100
  70.9936582  16.0975794  94.1946802  72.4473275  12.9544881  87.3672418
  73.1497319  13.4065924  87.8346344  72.1153904  12.3128699  87.9952311
  66.1898609  11.2128433  92.6689551  65.3997663  11.4685962  92.1929662
  66.6809857  12.0276771  92.7741592  68.1413355  11.5773013  89.6273028
  67.3444518  11.6891707  90.1456524  67.9138947  11.9159665  88.7613919
  73.9719022  18.1017716  97.5755543  74.0363455  18.5638123  98.4113715
  73.2629946  17.4715081  97.7037853  64.4736312  11.4658924  95.1004542
  64.7244351  12.3505934  95.3662118  65.0095861  11.2863525  94.3279634
  73.6867040  19.7685823  87.4434523  73.5512715  20.6137359  87.8719371
  74.2276853  19.9705101  86.6800457  67.1396437  17.2861261  88.0162448
  67.6520958  18.0804512  88.1668013  67.7919150  16.5887552  87.9496050
  68.9491322  20.4027018  90.0985201  69.1257950  21.3244982  89.9106185
  69.7448156  20.0885437  90.5279581  70.0722638  21.9205191  96.0995544
  70.6230063  21.7922255  95.3272538  69.2334113  22.2200080  95.7490436
  65.1045354  15.6149916  88.7922019  65.9420576  16.0246924  88.5755726
  65.2823622  14.6749358  88.7622213  77.0009786  13.2824996  84.4805852
  76.4856410  14.0529601  84.7194239  76.7287095  12.6090132  85.1038913
  74.5856897   8.1274697  89.5391090  73.7298494   7.7381547  89.3596729
  74.9983849   8.2066658  88.6790876  72.3598930   5.7459770  92.9448832
  73.2251927   5.5502579  92.5854721  72.4276439   5.5170122  93.8718188
  81.9744060  16.0357351  86.4159025  81.1973503  15.6968510  85.9714187
  82.6535541  16.0409974  85.7413990  76.7896089  11.1552088  86.3065633
  76.4846225  11.4698237  87.1575776  77.7426532  11.2333508  86.3492966
  75.2342521  17.3142312  87.9558587  74.7063883  16.5795071  87.6431824
  74.7330024  18.0916988  87.7098555  80.2135367  15.5091332  93.0725633
  79.5559042  16.1990594  93.1605762  81.0175767  15.8987764  93.4159619
  69.9661249   7.9761978  90.3165198  70.5405001   7.7537159  89.5838391
  70.5532231   8.0450672  91.0693800  79.0240826  13.8635705  91.1229575
  79.5372708  14.4965697  91.6251285  79.6742050  13.2636900  90.7572935
  70.2930836  10.0066439  84.3361084  69.4568148  10.3441125  84.6570358
  70.1535606   9.8715419  83.3988221  72.2683917   4.8503227  89.0440268
  71.6148329   4.5352244  88.4196883  72.2264391   4.2278967  89.7700091
  73.3795122  15.1322522  80.9593560  72.4722183  14.9011775  81.1584709
  73.8766153  14.3360141  81.1467541  76.2863200  23.8420029  83.8790246
  75.6124899  24.1451726  84.4875204  76.6729022  24.6449109  83.5295703
  75.5021657  11.3385160  93.3687915  74.5844218  11.5600107  93.2109603
  75.9181801  11.4131471  92.5099623  76.2856705  12.7376576  88.4990596
  77.0328524  13.2497973  88.1897718  76.5548294  12.4160629  89.3594989
  74.5583355  15.2335117  85.4817550  73.6494574  14.9494150  85.5790020
  74.5878439  15.6534195  84.6220857  79.7902622  18.8441706  89.2508718
  79.3364949  18.0032616  89.3073908  79.1596589  19.4803105  89.5883498
  78.7335542   9.7733692  90.4809385  77.9958299   9.2611079  90.8119628
  78.9862315   9.3334074  89.6692662  78.2335562  20.6818203  90.1858536
  78.5258536  21.2423260  89.4670901  78.7434182  20.9746764  90.9411695
  65.1271525  12.9540631  89.4632752  64.9295925  12.3609992  88.7383819
  64.5718189  12.6492841  90.1808691  73.1068249  12.8463737  91.5827345
  73.1616859  11.8937574  91.5069822  72.2959451  13.0023176  92.0668644
  74.2559443  16.7743860  82.8205629  73.8178873  16.0579719  82.3611266
  74.9969884  17.0019975  82.2590720  71.0460609  11.4640797  89.3417724
  70.2328474  11.7634968  89.7482916  71.5419603  11.0696486  90.0592206
  73.1969187  21.4598554  91.2751989  73.1545366  21.6859400  90.3460521
  74.1131886  21.2261929  91.4237790  82.3732558  15.0501057  88.8781947
  82.2350456  15.2402653  87.9503136  82.0168776  15.8120440  89.3349998
  70.5374684   9.0359153  94.9578959  71.1774063   8.8947912  94.2601922
  69.7052214   8.7493666  94.5817561  71.3134988  18.3361583  91.0713952
  72.1075586  17.8411903  90.8696527  70.6026680  17.8079446  90.7081657
  76.1329832  20.7179679  95.4226319  76.1866854  21.2870615  96.1904035
  75.2644613  20.8881564  95.0580356  67.6217751  12.4804665  87.1473704
  66.6915339  12.4189120  87.3643666  67.7175223  11.9580618  86.3510346
  67.5403300   9.0059478  89.7351946  67.8010117   9.9204811  89.6261106
  68.3620472   8.5383920  89.8848559  69.0128225  10.4197235  96.9050770
  69.6851279  10.2114597  96.2563419  68.1858012  10.2219321  96.4656003
  75.0917932  14.8839941  96.9813251  76.0209992  15.0351100  96.8082218
  74.6708962  14.9723961  96.1261898  73.8906264  18.9090605  94.7511789
  73.7517349  18.5409389  95.6237727  73.1020860  19.4238244  94.5795746
  74.4854416  24.0099702  86.0937325  74.6606171  23.5387745  86.9082948
  73.7987204  24.6365468  86.3218586  75.4411479  18.2872208  92.1400626
  75.1061311  18.2472978  93.0358276  74.9415424  17.6216924  91.6671037
  69.4155723  13.6939838  97.6653208  69.2775521  12.9620077  98.2664747
  70.3260646  13.6048738  97.3837395  78.3770670  15.6328242  82.4137686
  77.7599841  14.9075070  82.3170739  77.9087159  16.3937602  82.0704760
  72.0438023  13.4059797  97.1536887  72.7537642  12.7652989  97.1123506
  72.0007332  13.6572692  98.0763068  69.0515501  27.1589064  92.8677185
  69.2912099  27.7907588  93.5456204  68.2084697  26.8077104  93.1542545
  70.1669216   9.8513666  81.5358990  69.2898683   9.7302467  81.1721237
  70.6426969   9.0599745  81.2837879  61.6871356  14.6390826  91.6300498
  62.3742396  14.3252556  91.0421513  61.5319485  15.5432191  91.3567749
  66.4906079   9.5281023  96.0585521  66.4064267   8.9206692  95.3235931
  65.6688785  10.0190041  96.0595018  73.5643363  22.9668187  95.2718689
  73.4913534  23.7723158  95.7837994  73.1220756  23.1660153  94.4466711
  73.3533142  22.2039957  88.7821511  72.5700664  22.7461637  88.8759735
  74.0525887  22.7213936  89.1815752  76.6629792   8.0134586  91.4255716
  77.1598492   7.2604549  91.1056787  75.8916774   8.0498903  90.8598926
  76.0242046  22.8655021  97.4276848  76.7370018  23.5002486  97.3552749
  75.5332075  22.9618887  96.6116850  77.7459573  16.7706273  88.9994140
  76.8115852  16.8907736  88.8298844  77.9236242  15.8678740  88.7354150
  73.2464761  10.1551969  91.1527401  72.8762549   9.6023010  91.8408306
  73.7423854   9.5510103  90.6002401  81.1332124  12.6123593  89.5344174
  81.5992577  13.4451584  89.4604476  81.5839625  12.1468574  90.2389432
  71.0753960  20.6149464  98.2482419  71.7763419  21.2485947  98.4011813
  70.6049075  20.9564196  97.4878058  79.2008356  18.9567414  86.5330326
  79.4768199  18.8424009  87.4424200  78.3312854  18.5584899  86.4942499
  75.8362420  23.2053765  90.1763139  76.0184814  22.3875421  90.6390892
  76.6595406  23.4221457  89.7388029  76.1704585  22.1321950  87.4378188
  76.6992352  21.6214405  86.8248350  76.4332805  21.8164480  88.3023721
  66.6721678  20.1485819  95.1813521  67.2575115  19.4029507  95.3141426
  66.4746516  20.4589776  96.0650185  69.5260333  23.1837067  90.1975964
  68.8570708  23.6683194  89.7140004  69.3873203  23.4306287  91.1119342
  61.2639333  12.7191419  93.9017965  61.3023432  12.1855010  94.6955083
  60.7579625  12.1926625  93.2828942  73.6665602  25.2180810  96.7958622
  74.2183910  25.3812432  97.5607707  74.0071795  25.8085248  96.1238647
  64.8947910  11.4455522  86.9771896  65.1901351  10.5366200  86.9238950
  63.9935946  11.4243261  86.6552898  76.8033989  23.1662786  93.7822304
  76.6785128  22.3652526  93.2733250  77.4613080  23.6608979  93.2936274
  68.4242157   9.5211518  92.9599445  67.7028743  10.1347486  92.8206918
  69.2135413  10.0569283  92.8816091  78.8668897  20.9671806  95.4101854
  77.9199233  20.8477157  95.3380181  79.2151670  20.0794304  95.4928116
  66.6235752   9.1269619  87.1011221  66.2948458   8.2466998  86.9186327
  66.9775122   9.0717288  87.9887610  75.8715331  20.7624522  91.6106207
  75.7240293  19.8341229  91.7913777  76.6968824  20.7844613  91.1263282
  69.7377575   9.4142589  87.4686699  70.0773647   9.9428510  86.7465307
  70.1849695   9.7522995  88.2445265  79.4749452  21.5853081  92.6971079
  80.3996000  21.3795942  92.5595531  79.3064756  21.3369482  93.6060421
  71.7245722   7.9117211  85.6679992  72.4454085   8.2898463  85.1643708
  71.1011026   8.6306087  85.7714970  75.8676845   8.6162360  86.6038324
  76.0840459   9.4986998  86.3027152  75.3870912   8.2248573  85.8743966
  70.6076066  11.5748073  93.1809069  70.4620647  11.8888376  94.0733350
  70.1301270  12.1932973  92.6279967  72.4672449   8.5650621  93.2289958
  72.4534018   7.6691714  92.8922256  73.1844877   8.5721285  93.8628244
  79.2644769  22.1038748  88.0533171  79.4381646  21.5385171  87.3007023
  79.7573660  22.9039643  87.8712661  65.0821728  14.1153417  96.1196730
  64.5375197  14.8913225  96.2517004  65.9601078  14.4624222  95.9615851
  71.8709345   7.4465001  88.4977528  71.9925256   6.5181647  88.6968416
  71.5811387   7.4603687  87.5855844  80.2519941  21.4205513  85.1530069
  80.9470846  22.0412205  85.3717384  80.5943091  20.5700864  85.4282447
  82.1511364  18.8705218  86.6817400  82.6762688  19.2092491  85.9566720
  82.0633717  17.9352233  86.4980535  73.8131413  22.7839292  98.8107277
  74.1218539  22.5388439  99.6829976  74.6106895  22.9885930  98.3226147
  73.8352025  24.9377201  91.0412653  73.3957015  24.4453580  91.7345510
  74.5860142  24.3950169  90.8004728  66.3144364  21.1288742  91.0437281
  67.1402384  20.8292514  90.6635925  65.9638416  20.3596365  91.4927070
  71.2825897  20.4815210  93.1134955  70.6605906  19.8185916  92.8137183
  71.9530764  20.5076342  92.4308603  64.5152969  19.0475069  92.0026215
  63.6784877  18.6197243  91.8210216  64.4876614  19.2407512  92.9397006
  70.8439404  19.0319134  86.5893415  70.9927524  19.7154598  85.9360088
  71.6505847  19.0124224  87.1042871  68.5992037  15.0584311  87.5954484
  68.3538079  14.1546641  87.7934694  68.7687952  15.0601462  86.6533962
  67.8687685  10.7912669  85.0940646  67.1756929  10.8657024  84.4380682
  67.6239436  10.0273013  85.6162163  74.3434810  21.5267264  84.0605163
  73.7708777  22.1457451  83.6075635  74.9167603  22.0766626  84.5945085
  77.5632069  21.8104414  85.1913745  78.4962743  21.7449976  85.3946621
  77.4755282  22.6460681  84.7328278  80.1920086  21.1270285  82.1517693
  80.1133718  20.7930148  83.0453451  81.0129753  21.6192053  82.1509165
  74.7281608  12.8628077  81.4021215  75.6740713  12.7334285  81.4709633
  74.3495853  12.1242739  81.8790643  72.9124525  10.7878053  81.3376101
  72.0055981  10.4911166  81.4138814  73.1900506  10.4907871  80.4710387
  63.8302466  12.1084417  91.7875147  63.5105250  11.2549725  91.4949521
  63.2835894  12.3232995  92.5433114  67.6082373  14.8246858  95.5044653
  67.8268383  15.7563966  95.5232687  68.0208147  14.4654832  96.2899457
  71.6823310   7.6464989  81.4788080  72.5442474   7.9719887  81.7383897
  71.8673654   6.8596485  80.9661146  63.6990726  15.7287328  93.7568269
  63.0054197  15.3141281  93.2438223  64.4463717  15.7707865  93.1601687
  65.6127468  15.6605582  91.6334283  65.5898156  15.7593269  90.6816166
  65.9228105  16.5070733  91.9551450  68.2714846  17.7181737  95.7480898
  69.2258100  17.6865679  95.6810829  68.0727370  17.2572361  96.5631124
  68.8614228  16.2882853  98.3151695  69.6807117  16.7826932  98.3386533
  69.1351036  15.3714821  98.2869263  78.6180824   8.6793605  87.6779651
  77.7306679   8.9643256  87.4599846  79.0334813   8.5187369  86.8306928
  66.6265075  23.2601357  92.7651096  66.4919543  22.5001757  92.1989094
  66.2097137  23.9842256  92.2979885  77.7624038  18.4438280  81.7727671
  78.4659888  18.6488283  82.3885327  77.0386687  19.0115042  82.0376754
  78.5921848  14.1948141  87.8929941  78.5357049  14.6516693  87.0537574
  79.1450191  13.4338826  87.7152784  69.7834201  24.1570674  92.9769538
  69.6666585  25.1016106  92.8748229  68.9626647  23.8544235  93.3655338
  79.6710735  18.8820809  83.8226131  80.5056339  18.4502008  83.6403606
  79.5095078  18.7102823  84.7503025  79.3256627  15.3852923  85.1882470
  79.2705431  15.2197194  84.2470914  78.7002683  16.0928956  85.3444660
  72.6352753   4.8861032  84.7667789  72.6231423   5.8302872  84.9236060
  73.5276175   4.7031177  84.4727250  70.8088715  24.8098936  96.1925467
  71.7115962  24.8422546  96.5091962  70.5826085  23.8799386  96.2071803
  72.5642317  23.5629922  92.8535545  71.6137948  23.5631784  92.7399918
  72.8674803  22.8162657  92.3371580  88.2995010  29.3990460  93.9181308
  88.9373420  29.2797208  93.2144648  88.1815853  30.3471304  93.9769260
  85.1084717  29.3517889  93.8542832  84.7703228  29.2358953  92.9663367
  85.9774485  28.9509054  93.8343839  80.9671532  31.2053365  89.8439723
  80.4036397  31.1143302  89.0756011  80.8523927  30.3853269  90.3242216
  78.5135964  32.7004557  92.6823944  79.3057256  32.3595381  92.2670243
  78.7532614  32.8099532  93.6026097  86.5471091  34.8724333  85.1554188
  85.8959071  35.4578413  84.7688202  87.3415454  35.4030528  85.2149226
  80.4726718  31.9613470  85.5541323  81.2457594  31.4142457  85.4154198
  80.8252117  32.8257719  85.7655784  82.3111761  33.2889852  98.7608222
  82.0201627  34.1935483  98.6454888  82.9468745  33.3306380  99.4752292
  83.2367968  30.6666701  95.3509582  83.8331540  30.4422723  94.6366545
  83.2942939  29.9251446  95.9535029  82.8092996  28.1206136  83.1859773
  83.0618517  27.5987657  82.4243236  81.8717555  27.9572281  83.2886456
  87.8536279  27.1241914  90.9934516  88.6399368  26.7061337  90.6424933
  88.1174983  28.0288006  91.1616164  88.0246356  32.5614765  85.6923173
  87.3892189  32.6349391  86.4044077  87.6943763  33.1508363  85.0142252
  82.5289285  30.0234242  85.3884148  82.4125543  29.3479145  86.0565232
  82.6391545  29.5366616  84.5716301  84.8720826  29.4844389  89.0930837
  84.5079033  28.9575010  89.8043758  85.7287942  29.0942858  88.9197322
  84.5126313  24.5134289  84.0892185  84.6800715  25.3814525  84.4562656
  84.3223482  24.6761570  83.1653475  87.2701646  32.9751268  95.7558016
  86.9702369  33.8776306  95.6473823  86.9252705  32.7083451  96.6079169
  80.7214127  29.4265064  91.7894720  79.7964624  29.2941279  91.9972412
  80.9698540  30.2059284  92.2864662  84.4915533  26.9691946  85.0738852
  84.3715159  27.4148997  85.9124332  83.7968122  27.3177264  84.5152390
  78.0822938  29.0698338  92.6238509  78.2115319  29.3232817  93.5377921
  77.4020390  29.6626046  92.3043164  82.2522426  39.7395588  88.7228983
  82.1746455  40.6903413  88.8017464  81.6484069  39.3941460  89.3803910
  90.1900600  27.4413419  85.9019186  91.1018456  27.6740806  85.7266884
  89.6810247  28.0250464  85.3394265  88.7970182  32.4239238  93.2932768
  88.1679044  32.5884952  92.5908835  88.4095844  32.8380847  94.0643732
  92.6759414  33.3593676  90.6477131  91.9910452  33.7392577  90.0974165
  92.7603263  33.9689002  91.3809079  84.3498144  32.1613646  90.5582853
  84.8136489  32.4401349  89.7687475  84.0854942  31.2597090  90.3755943
  81.2422225  31.7085127  93.4962616  81.8123582  32.1372396  92.8580100
  81.8330337  31.4267712  94.1946802  83.2867030  28.2836798  87.3672418
  83.9891073  28.7357842  87.8346344  82.9547658  27.6420617  87.9952311
  77.0292364  26.5420351  92.6689551  76.2391418  26.7977879  92.1929662
  77.5203611  27.3568689  92.7741592  78.9807109  26.9064930  89.6273028
  78.1838273  27.0183624  90.1456524  78.7532701  27.2451582  88.7613919
  84.8112777  33.4309633  97.5755543  84.8757209  33.8930041  98.4113715
  84.1023701  32.8006998  97.7037853  75.3130067  26.7950841  95.1004542
  75.5638105  27.6797851  95.3662118  75.8489615  26.6155443  94.3279634
  84.5260795  35.0977741  87.4434523  84.3906469  35.9429277  87.8719371
  85.0670607  35.2997019  86.6800457  77.9790192  32.6153179  88.0162448
  78.4914712  33.4096429  88.1668013  78.6312905  31.9179469  87.9496050
  79.7885077  35.7318935  90.0985201  79.9651705  36.6536900  89.9106185
  80.5841910  35.4177354  90.5279581  79.0737433  27.7783567  99.9747365
  78.9590948  26.8768824 100.2754463  78.2181951  28.0247264  99.6232181
  80.9116392  37.2497109  96.0995544  81.4623817  37.1214172  95.3272538
  80.0727868  37.5491998  95.7490436  75.9439109  30.9441833  88.7922019
  76.7814331  31.3538842  88.5755726  76.1217376  30.0041275  88.7622213
  87.8403541  28.6116914  84.4805852  87.3250164  29.3821519  84.7194239
  87.5680849  27.9382050  85.1038913  85.4250652  23.4566615  89.5391090
  84.5692248  23.0673465  89.3596729  85.8377604  23.5358575  88.6790876
  83.1992684  21.0751688  92.9448832  84.0645681  20.8794496  92.5854721
  83.2670193  20.8462039  93.8718188  92.8137815  31.3649269  86.4159025
  92.0367258  31.0260428  85.9714187  93.4929296  31.3701892  85.7413990
  87.6289844  26.4844006  86.3065633  87.3239980  26.7990155  87.1575776
  88.5820286  26.5625426  86.3492966  86.0736276  32.6434229  87.9558587
  85.5457637  31.9086989  87.6431824  85.5723779  33.4208906  87.7098555
  91.0529122  30.8383250  93.0725633  90.3952796  31.5282511  93.1605762
  91.8569521  31.2279682  93.4159619  80.8055003  23.3053896  90.3165198
  81.3798755  23.0829077  89.5838391  81.3925986  23.3742590  91.0693800
  89.8634581  29.1927622  91.1229575  90.3766462  29.8257614  91.6251285
  90.5135805  28.5928818  90.7572935  81.1324591  25.3358357  84.3361084
  80.2961903  25.6733043  84.6570358  80.9929360  25.2007336  83.3988221
  83.1077671  20.1795144  89.0440268  82.4542083  19.8644162  88.4196883
  83.0658145  19.5570885  89.7700091  84.2188876  30.4614440  80.9593560
  83.3115938  30.2303693  81.1584709  84.7159908  29.6652059  81.1467541
  87.1256955  39.1711947  83.8790246  86.4518654  39.4743644  84.4875204
  87.5122777  39.9741027  83.5295703  86.3415412  26.6677078  93.3687915
  85.4237973  26.8892025  93.2109603  86.7575555  26.7423389  92.5099623
  87.1250459  28.0668494  88.4990596  87.8722278  28.5789891  88.1897718
  87.3942049  27.7452546  89.3594989  85.3977109  30.5627034  85.4817550
  84.4888329  30.2786067  85.5790020  85.4272193  30.9826113  84.6220857
  90.6296377  34.1733624  89.2508718  90.1758704  33.3324534  89.3073908
  89.9990344  34.8095022  89.5883498  89.5729296  25.1025610  90.4809385
  88.8352053  24.5902996  90.8119628  89.8256070  24.6625992  89.6692662
  89.0729316  36.0110121  90.1858536  89.3652290  36.5715178  89.4670901
  89.5827937  36.3038682  90.9411695  75.9665280  28.2832549  89.4632752
  75.7689680  27.6901909  88.7383819  75.4111944  27.9784759  90.1808691
  83.9462003  28.1755655  91.5827345  84.0010613  27.2229491  91.5069822
  83.1353206  28.3315094  92.0668644  85.0953197  32.1035778  82.8205629
  84.6572627  31.3871637  82.3611266  85.8363638  32.3311893  82.2590720
  81.8854363  26.7932715  89.3417724  81.0722229  27.0926885  89.7482916
  82.3813358  26.3988404  90.0592206  84.0362941  36.7890472  91.2751989
  83.9939120  37.0151318  90.3460521  84.9525640  36.5553846  91.4237790
  93.2126312  30.3792975  88.8781947  93.0744211  30.5694571  87.9503136
  92.8562531  31.1412358  89.3349998  81.3768438  24.3651070  94.9578959
  82.0167817  24.2239829  94.2601922  80.5445969  24.0785584  94.5817561
  82.1528742  33.6653501  91.0713952  82.9469341  33.1703821  90.8696527
  81.4420434  33.1371364  90.7081657  86.9723587  36.0471596  95.4226319
  87.0260609  36.6162533  96.1904035  86.1038368  36.2173481  95.0580356
  78.4611506  27.8096582  87.1473704  77.5309094  27.7481038  87.3643666
  78.5568978  27.2872535  86.3510346  78.3797055  24.3351395  89.7351946
  78.6403872  25.2496729  89.6261106  79.2014227  23.8675838  89.8848559
  79.8521980  25.7489152  96.9050770  80.5245033  25.5406515  96.2563419
  79.0251766  25.5511238  96.4656003  85.9311686  30.2131858  96.9813251
  86.8603746  30.3643018  96.8082218  85.5102716  30.3015879  96.1261898
  84.7300018  34.2382523  94.7511789  84.5911104  33.8701307  95.6237727
  83.9414614  34.7530162  94.5795746  85.3248170  39.3391619  86.0937325
  85.4999926  38.8679662  86.9082948  84.6380958  39.9657385  86.3218586
  86.2805233  33.6164125  92.1400626  85.9455066  33.5764895  93.0358276
  85.7809179  32.9508841  91.6671037  80.2549477  29.0231755  97.6653208
  80.1169275  28.2911994  98.2664747  81.1654401  28.9340656  97.3837395
  89.2164425  30.9620160  82.4137686  88.5993595  30.2366988  82.3170739
  88.7480913  31.7229520  82.0704760  82.8831778  28.7351715  97.1536887
  83.5931396  28.0944907  97.1123506  82.8401086  28.9864610  98.0763068
  79.8909255  42.4880982  92.8677185  80.1305854  43.1199506  93.5456204
  79.0478452  42.1369022  93.1542545  81.0062971  25.1805584  81.5358990
  80.1292437  25.0594385  81.1721237  81.4820724  24.3891662  81.2837879
  72.5265111  29.9682744  91.6300498  73.2136151  29.6544474  91.0421513
  72.3713240  30.8724108  91.3567749  77.3299833  24.8572940  96.0585521
  77.2458022  24.2498610  95.3235931  76.5082539  25.3481959  96.0595018
  84.4037117  38.2960104  95.2718689  84.3307289  39.1015076  95.7837994
  83.9614510  38.4952070  94.4466711  84.1926897  37.5331874  88.7821511
  83.4094419  38.0753555  88.8759735  84.8919642  38.0505854  89.1815752
  87.5023547  23.3426504  91.4255716  87.9992246  22.5896466  91.1056787
  86.7310528  23.3790821  90.8598926  86.8635801  38.1946938  97.4276848
  87.5763773  38.8294403  97.3552749  86.3725829  38.2910804  96.6116850
  88.5853328  32.0998191  88.9994140  87.6509606  32.2199654  88.8298844
  88.7629996  31.1970658  88.7354150  84.0858516  25.4843887  91.1527401
  83.7156303  24.9314927  91.8408306  84.5817608  24.8802020  90.6002401
  91.9725879  27.9415510  89.5344174  92.4386331  28.7743502  89.4604476
  92.4233379  27.4760492  90.2389432  81.9147714  35.9441382  98.2482419
  82.6157174  36.5777865  98.4011813  81.4442829  36.2856113  97.4878058
  90.0402110  34.2859332  86.5330326  90.3161954  34.1715926  87.4424200
  89.1706609  33.8876817  86.4942499  86.6756174  38.5345683  90.1763139
  86.8578569  37.7167338  90.6390892  87.4989160  38.7513375  89.7388029
  87.0098340  37.4613868  87.4378188  87.5386106  36.9506322  86.8248350
  87.2726559  37.1456398  88.3023721  77.5115432  35.4777737  95.1813521
  78.0968869  34.7321425  95.3141426  77.3140271  35.7881694  96.0650185
  80.3654088  38.5128984  90.1975964  79.6964463  38.9975112  89.7140004
  80.2266957  38.7598205  91.1119342  72.1033087  28.0483337  93.9017965
  72.1417187  27.5146928  94.6955083  71.5973380  27.5218543  93.2828942
  84.5059356  40.5472728  96.7958622  85.0577664  40.7104349  97.5607707
  84.8465550  41.1377166  96.1238647  79.4823849  22.8947878  97.3980507
  79.5465176  23.7562709  96.9857905  79.4190970  22.2821879  96.6652865
  75.7341665  26.7747439  86.9771896  76.0295106  25.8658118  86.9238950
  74.8329700  26.7535179  86.6552898  87.6427743  38.4954703  93.7822304
  87.5178883  37.6944443  93.2733250  88.3006834  38.9900897  93.2936274
  79.2635912  24.8503436  92.9599445  78.5422497  25.4639404  92.8206918
  80.0529167  25.3861201  92.8816091  89.7062652  36.2963723  95.4101854
  88.7592987  36.1769075  95.3380181  90.0545425  35.4086221  95.4928116
  77.4629506  24.4561537  87.1011221  77.1342212  23.5758916  86.9186327
  77.8168877  24.4009206  87.9887610  86.7109085  36.0916440  91.6106207
  86.5634047  35.1633147  91.7913777  87.5362579  36.1136530  91.1263282
  80.5771329  24.7434507  87.4686699  80.9167402  25.2720428  86.7465307
  81.0243450  25.0814913  88.2445265  90.3143207  36.9144998  92.6971079
  91.2389754  36.7087860  92.5595531  90.1458510  36.6661400  93.6060421
  82.5639476  23.2409128  85.6679992  83.2847839  23.6190381  85.1643708
  81.9404781  23.9598005  85.7714970  86.7070599  23.9454277  86.6038324
  86.9234214  24.8278915  86.3027152  86.2264667  23.5540491  85.8743966
  81.4469821  26.9039991  93.1809069  81.3014401  27.2180294  94.0733350
  80.9695024  27.5224891  92.6279967  83.3066204  23.8942539  93.2289958
  83.2927772  22.9983632  92.8922256  84.0238632  23.9013202  93.8628244
  90.1038523  37.4330666  88.0533171  90.2775401  36.8677088  87.3007023
  90.5967414  38.2331561  87.8712661  75.9215483  29.4445335  96.1196730
  75.3768951  30.2205143  96.2517004  76.7994833  29.7916139  95.9615851
  82.7103100  22.7756919  88.4977528  82.8319011  21.8473565  88.6968416
  82.4205142  22.7895605  87.5855844  85.5794290  20.4611829  91.6344248
  85.6015987  20.5251162  90.6796228  85.9962349  19.6216338  91.8284754
  91.0913696  36.7497430  85.1530069  91.7864600  37.3704123  85.3717384
  91.4336846  35.8992781  85.4282447  76.7081505  28.5715231  99.0126887
  75.9663241  28.7197867  99.5991517  76.3874249  28.8323497  98.1493636
  92.9905119  34.1997136  86.6817400  93.5156443  34.5384409  85.9566720
  92.9027471  33.2644151  86.4980535  84.6525167  38.1131209  98.8107277
  84.9612294  37.8680356  99.6829976  85.4500649  38.3177848  98.3226147
  84.6745779  40.2669119  91.0412653  84.2350770  39.7745498  91.7345510
  85.4253896  39.7242087  90.8004728  77.1538118  36.4580660  91.0437281
  77.9796138  36.1584432  90.6635925  76.8032170  35.6888282  91.4927070
  82.1219652  35.8107128  93.1134955  81.4999661  35.1477833  92.8137183
  82.7924519  35.8368260  92.4308603  75.3546724  34.3766986  92.0026215
  74.5178632  33.9489161  91.8210216  75.3270369  34.5699430  92.9397006
  81.6833159  34.3611052  86.5893415  81.8321279  35.0446516  85.9360088
  82.4899602  34.3416142  87.1042871  79.4385792  30.3876229  87.5954484
  79.1931833  29.4838559  87.7934694  79.6081706  30.3893380  86.6533962
  78.7081439  26.1204587  85.0940646  78.0150684  26.1948942  84.4380682
  78.4633191  25.3564930  85.6162163  85.1828564  36.8559182  84.0605163
  84.6102531  37.4749369  83.6075635  85.7561358  37.4058544  84.5945085
  88.4025824  37.1396332  85.1913745  89.3356497  37.0741894  85.3946621
  88.3149037  37.9752599  84.7328278  91.0313841  36.4562202  82.1517693
  90.9527472  36.1222066  83.0453451  91.8523507  36.9483970  82.1509165
  85.5675363  28.1919995  81.4021215  86.5134467  28.0626203  81.4709633
  85.1889608  27.4534657  81.8790643  83.7518280  26.1169971  81.3376101
  82.8449735  25.8203084  81.4138814  84.0294261  25.8199789  80.4710387
  74.6696220  27.4376334  91.7875147  74.3499004  26.5841643  91.4949521
  74.1229648  27.6524913  92.5433114  78.4476128  30.1538775  95.5044653
  78.6662137  31.0855883  95.5232687  78.8601901  29.7946750  96.2899457
  85.3680345  20.6606861  87.4920342  84.5581074  20.3153946  87.8675588
  86.0564762  20.3514405  88.0807953  87.2970894  19.7384908  89.1144638
  87.8501932  20.1580361  89.7734662  87.5340980  18.8120656  89.1567594
  82.5217064  22.9756906  81.4788080  83.3836228  23.3011805  81.7383897
  82.7067408  22.1888402  80.9661146  74.5384480  31.0579246  93.7568269
  73.8447952  30.6433199  93.2438223  75.2857471  31.0999782  93.1601687
  90.6749701  21.8485433  88.6223303  90.0948370  22.5070237  88.2401355
  90.4085633  21.0262777  88.2110720  76.4521223  30.9897500  91.6334283
  76.4291911  31.0885187  90.6816166  76.7621859  31.8362651  91.9551450
  79.1108601  33.0473655  95.7480898  80.0651854  33.0157597  95.6810829
  78.9121124  32.5864279  96.5631124  79.7007983  31.6174771  98.3151695
  80.5200872  32.1118850  98.3386533  79.9744790  30.7006739  98.2869263
  89.4574579  24.0085523  87.6779651  88.5700434  24.2935174  87.4599846
  89.8728568  23.8479287  86.8306928  77.4658829  38.5893274  92.7651096
  77.3313297  37.8293675  92.1989094  77.0490892  39.3134174  92.2979885
  88.6017792  33.7730198  81.7727671  89.3053642  33.9780200  82.3885327
  87.8780441  34.3406960  82.0376754  89.4315603  29.5240059  87.8929941
  89.3750804  29.9808611  87.0537574  89.9843945  28.7630744  87.7152784
  80.6227955  39.4862591  92.9769538  80.5060339  40.4308024  92.8748229
  79.8020401  39.1836153  93.3655338  90.5104490  34.2112727  83.8226131
  91.3450094  33.7793925  83.6403606  90.3488833  34.0394741  84.7503025
  90.1650382  30.7144840  85.1882470  90.1099186  30.5489112  84.2470914
  89.5396437  31.4220873  85.3444660  74.9542897  25.9512905  99.0143893
  75.6001760  25.4411859  99.5031118  74.7460048  26.6881586  99.5887318
  83.4746507  20.2152949  84.7667789  83.4625177  21.1594789  84.9236060
  84.3669929  20.0323095  84.4727250  81.6482469  40.1390853  96.1925467
  82.5509716  40.1714463  96.5091962  81.4219839  39.2091304  96.2071803
  83.4036071  38.8921840  92.8535545  82.4531702  38.8923701  92.7399918
  83.7068557  38.1454574  92.3371580  99.1388765  44.7282378  93.9181308
  99.7767175  44.6089125  93.2144648  99.0209608  45.6763222  93.9769260
  95.9478471  44.6809806  93.8542832  95.6096983  44.5650871  92.9663367
  96.8168239  44.2800971  93.8343839  91.8065287  46.5345283  89.8439723
  91.2430152  46.4435220  89.0756011  91.6917682  45.7145187  90.3242216
  89.3529719  48.0296474  92.6823944  90.1451011  47.6887299  92.2670243
  89.5926369  48.1391449  93.6026097  97.3864845  50.2016250  85.1554188
  96.7352825  50.7870331  84.7688202  98.1809208  50.7322445  85.2149226
  91.3120473  47.2905388  85.5541323  92.0851349  46.7434375  85.4154198
  91.6645872  48.1549637  85.7655784  93.1505515  48.6181770  98.7608222
  92.8595381  49.5227401  98.6454888  93.7862500  48.6598297  99.4752292
  94.0761722  45.9958618  95.3509582  94.6725294  45.7714641  94.6366545
  94.1336694  45.2543364  95.9535029  93.6486750  43.4498054  83.1859773
  93.9012271  42.9279575  82.4243236  92.7111310  43.2864199  83.2886456
  98.6930033  42.4533832  90.9934516  99.4793123  42.0353255  90.6424933
  98.9568738  43.3579924  91.1616164  98.8640111  47.8906682  85.6923173
  98.2285944  47.9641309  86.4044077  98.5337517  48.4800281  85.0142252
  93.3683039  45.3526160  85.3884148  93.2519297  44.6771063  86.0565232
  93.4785299  44.8658534  84.5716301  95.7114580  44.8136307  89.0930837
  95.3472787  44.2866928  89.8043758  96.5681696  44.4234776  88.9197322
  95.3520067  39.8426206  84.0892185  95.5194469  40.7106443  84.4562656
  95.1617236  40.0053488  83.1653475  98.1095400  48.3043185  95.7558016
  97.8096123  49.2068224  95.6473823  97.7646460  48.0375368  96.6079169
  91.5607882  44.7556982  91.7894720  90.6358378  44.6233196  91.9972412
  91.8092295  45.5351201  92.2864662  95.3309288  42.2983864  85.0738852
  95.2108913  42.7440915  85.9124332  94.6361876  42.6469182  84.5152390
  88.9216693  44.3990256  92.6238509  89.0509074  44.6524735  93.5377921
  88.2414144  44.9917964  92.3043164  93.0916180  55.0687506  88.7228983
  93.0140210  56.0195331  88.8017464  92.4877824  54.7233378  89.3803910
 101.0294354  42.7705337  85.9019186 101.9412210  43.0032724  85.7266884
 100.5204001  43.3542381  85.3394265  99.6363936  47.7531156  93.2932768
  99.0072799  47.9176870  92.5908835  99.2489599  48.1672765  94.0643732
 103.5153168  48.6885593  90.6477131 102.8304207  49.0684495  90.0974165
 103.5997018  49.2980920  91.3809079  95.1891898  47.4905564  90.5582853
  95.6530244  47.7693267  89.7687475  94.9248696  46.5889008  90.3755943
  92.0815979  47.0377045  93.4962616  92.6517336  47.4664314  92.8580100
  92.6724091  46.7559630  94.1946802  94.1260784  43.6128716  87.3672418
  94.8284828  44.0649760  87.8346344  93.7941413  42.9712535  87.9952311
  87.8686118  41.8712269  92.6689551  87.0785172  42.1269797  92.1929662
  88.3597366  42.6860606  92.7741592  89.8200864  42.2356848  89.6273028
  89.0232027  42.3475542  90.1456524  89.5926456  42.5743500  88.7613919
  95.6506531  48.7601551  97.5755543  95.7150964  49.2221958  98.4113715
  94.9417455  48.1298916  97.7037853  86.1523821  42.1242759  95.1004542
  86.4031860  43.0089769  95.3662118  86.6883370  41.9447361  94.3279634
  95.3654549  50.4269659  87.4434523  95.2300224  51.2721194  87.8719371
  95.9064362  50.6288936  86.6800457  88.8183946  47.9445097  88.0162448
  89.3308467  48.7388347  88.1668013  89.4706659  47.2471387  87.9496050
  90.6278831  51.0610853  90.0985201  90.8045459  51.9828818  89.9106185
  91.4235665  50.7469272  90.5279581  89.9131188  43.1075485  99.9747365
  89.7984703  42.2060742 100.2754463  89.0575705  43.3539182  99.6232181
  91.7510147  52.5789027  96.0995544  92.3017572  52.4506090  95.3272538
  90.9121622  52.8783916  95.7490436  86.7832863  46.2733751  88.7922019
  87.6208085  46.6830759  88.5755726  86.9611131  45.3333193  88.7622213
  98.6797295  43.9408832  84.4805852  98.1643919  44.7113436  84.7194239
  98.4074604  43.2673968  85.1038913  96.2644406  38.7858532  89.5391090
  95.4086003  38.3965383  89.3596729  96.6771358  38.8650493  88.6790876
  94.0386439  36.4043605  92.9448832  94.9039436  36.2086414  92.5854721
  94.1063948  36.1753957  93.8718188 103.6531569  46.6941186  86.4159025
 102.8761012  46.3552346  85.9714187 104.3323050  46.6993809  85.7413990
  98.4683598  41.8135924  86.3065633  98.1633734  42.1282073  87.1575776
  99.4214041  41.8917344  86.3492966  96.9130030  47.9726147  87.9558587
  96.3851392  47.2378907  87.6431824  96.4117533  48.7500823  87.7098555
 101.8922876  46.1675167  93.0725633 101.2346551  46.8574429  93.1605762
 102.6963276  46.5571599  93.4159619  91.6448758  38.6345813  90.3165198
  92.2192510  38.4120995  89.5838391  92.2319740  38.7034508  91.0693800
 100.7028335  44.5219540  91.1229575 101.2160217  45.1549532  91.6251285
 101.3529559  43.9220736  90.7572935  91.9718345  40.6650274  84.3361084
  91.1355657  41.0024961  84.6570358  91.8323115  40.5299254  83.3988221
  93.9471426  35.5087062  89.0440268  93.2935838  35.1936079  88.4196883
  93.9051900  34.8862803  89.7700091  95.0582630  45.7906357  80.9593560
  94.1509692  45.5595611  81.1584709  95.5553662  44.9943977  81.1467541
  97.9650709  54.5003864  83.8790246  97.2912408  54.8035561  84.4875204
  98.3516531  55.3032945  83.5295703  97.1809166  41.9968996  93.3687915
  96.2631727  42.2183943  93.2109603  97.5969310  42.0715306  92.5099623
  97.9644214  43.3960411  88.4990596  98.7116033  43.9081809  88.1897718
  98.2335803  43.0744464  89.3594989  96.2370864  45.8918952  85.4817550
  95.3282083  45.6077985  85.5790020  96.2665948  46.3118031  84.6220857
 101.4690131  49.5025542  89.2508718 101.0152458  48.6616451  89.3073908
 100.8384098  50.1386940  89.5883498 100.4123051  40.4317528  90.4809385
  99.6745808  39.9194914  90.8119628 100.6649824  39.9917909  89.6692662
  99.9123071  51.3402038  90.1858536 100.2046045  51.9007095  89.4670901
 100.4221691  51.6330599  90.9411695  86.8059034  43.6124466  89.4632752
  86.6083434  43.0193827  88.7383819  86.2505698  43.3076676  90.1808691
  94.7855758  43.5047573  91.5827345  94.8404368  42.5521409  91.5069822
  93.9746960  43.6607012  92.0668644  95.9346952  47.4327696  82.8205629
  95.4966382  46.7163555  82.3611266  96.6757393  47.6603811  82.2590720
  92.7248118  42.1224632  89.3417724  91.9115983  42.4218803  89.7482916
  93.2207112  41.7280321  90.0592206  94.8756696  52.1182389  91.2751989
  94.8332875  52.3443236  90.3460521  95.7919395  51.8845764  91.4237790
 104.0520067  45.7084893  88.8781947 103.9137965  45.8986489  87.9503136
 103.6956285  46.4704276  89.3349998  92.2162193  39.6942988  94.9578959
  92.8561572  39.5531747  94.2601922  91.3839723  39.4077501  94.5817561
  92.9922497  48.9945418  91.0713952  93.7863095  48.4995739  90.8696527
  92.2814189  48.4663282  90.7081657  97.8117341  51.3763514  95.4226319
  97.8654363  51.9454450  96.1904035  96.9432122  51.5465399  95.0580356
  89.3005260  43.1388500  87.1473704  88.3702848  43.0772956  87.3643666
  89.3962732  42.6164453  86.3510346  89.2190809  39.6643313  89.7351946
  89.4797626  40.5788646  89.6261106  90.0407981  39.1967756  89.8848559
  90.6915734  41.0781070  96.9050770  91.3638788  40.8698432  96.2563419
  89.8645521  40.8803156  96.4656003  96.7705441  45.5423776  96.9813251
  97.6997501  45.6934936  96.8082218  96.3496471  45.6307797  96.1261898
  95.5693773  49.5674440  94.7511789  95.4304858  49.1993225  95.6237727
  94.7808369  50.0822080  94.5795746  96.1641925  54.6683537  86.0937325
  96.3393680  54.1971580  86.9082948  95.4774713  55.2949303  86.3218586
  97.1198988  48.9456043  92.1400626  96.7848820  48.9056813  93.0358276
  96.6202933  48.2800759  91.6671037  91.0943232  44.3523673  97.6653208
  90.9563030  43.6203912  98.2664747  92.0048155  44.2632573  97.3837395
 100.0558179  46.2912077  82.4137686  99.4387350  45.5658906  82.3170739
  99.5874668  47.0521438  82.0704760  93.7225532  44.0643632  97.1536887
  94.4325151  43.4236825  97.1123506  93.6794840  44.3156527  98.0763068
  90.7303010  57.8172900  92.8677185  90.9699608  58.4491424  93.5456204
  89.8872206  57.4660940  93.1542545  91.8456725  40.5097502  81.5358990
  90.9686192  40.3886303  81.1721237  92.3214478  39.7183580  81.2837879
  83.3658865  45.2974661  91.6300498  84.0529905  44.9836391  91.0421513
  83.2106994  46.2016026  91.3567749  88.1693588  40.1864858  96.0585521
  88.0851776  39.5790528  95.3235931  87.3476294  40.6773876  96.0595018
  95.2430872  53.6252022  95.2718689  95.1701043  54.4306994  95.7837994
  94.8008265  53.8243988  94.4466711  95.0320651  52.8623792  88.7821511
  94.2488173  53.4045472  88.8759735  95.7313396  53.3797772  89.1815752
  98.3417301  38.6718422  91.4255716  98.8386001  37.9188384  91.1056787
  97.5704283  38.7082738  90.8598926  99.4247082  47.4290109  88.9994140
  98.4903361  47.5491571  88.8298844  99.6023751  46.5262576  88.7354150
  94.9252270  40.8135805  91.1527401  94.5550058  40.2606845  91.8408306
  95.4211363  40.2093938  90.6002401 102.8119633  43.2707428  89.5344174
 103.2780086  44.1035420  89.4604476 103.2627134  42.8052410  90.2389432
  92.7541469  51.2733300  98.2482419  93.4550928  51.9069783  98.4011813
  92.2836584  51.6148031  97.4878058 100.8795865  49.6151249  86.5330326
 101.1555708  49.5007844  87.4424200 100.0100363  49.2168734  86.4942499
  97.5149929  53.8637600  90.1763139  97.6972323  53.0459256  90.6390892
  98.3382915  54.0805292  89.7388029  97.8492094  52.7905785  87.4378188
  98.3779860  52.2798240  86.8248350  98.1120314  52.4748316  88.3023721
  88.3509187  50.8069655  95.1813521  88.9362624  50.0613343  95.3141426
  88.1534025  51.1173611  96.0650185  91.2047842  53.8420902  90.1975964
  90.5358217  54.3267030  89.7140004  91.0660712  54.0890122  91.1119342
  82.9426842  43.3775255  93.9017965  82.9810941  42.8438846  94.6955083
  82.4367134  42.8510460  93.2828942  90.3217604  38.2239795  97.3980507
  90.3858930  39.0854626  96.9857905  90.2584724  37.6113797  96.6652865
  86.5735419  42.1039357  86.9771896  86.8688860  41.1950035  86.9238950
  85.6723455  42.0827096  86.6552898  98.4821498  53.8246621  93.7822304
  98.3572637  53.0236361  93.2733250  99.1400589  54.3192814  93.2936274
  90.1029666  40.1795354  92.9599445  89.3816252  40.7931321  92.8206918
  90.8922922  40.7153118  92.8816091 100.5456406  51.6255641  95.4101854
  99.5986742  51.5060992  95.3380181 100.8939179  50.7378139  95.4928116
  88.3023261  39.7853455  87.1011221  87.9735967  38.9050834  86.9186327
  88.6562631  39.7301123  87.9887610  97.5502840  51.4208357  91.6106207
  97.4027802  50.4925065  91.7913777  98.3756333  51.4428448  91.1263282
  91.4165084  40.0726424  87.4686699  91.7561156  40.6012346  86.7465307
  91.8637204  40.4106831  88.2445265 101.1536961  52.2436916  92.6971079
 102.0783509  52.0379777  92.5595531 100.9852265  51.9953317  93.6060421
  93.4033231  38.5701046  85.6679992  94.1241593  38.9482299  85.1643708
  92.7798535  39.2889923  85.7714970  97.5464354  39.2746195  86.6038324
  97.7627968  40.1570833  86.3027152  97.0658421  38.8832408  85.8743966
  92.2863575  42.2331908  93.1809069  92.1408156  42.5472211  94.0733350
  91.8088779  42.8516809  92.6279967  94.1459958  39.2234456  93.2289958
  94.1321527  38.3275550  92.8922256  94.8632386  39.2305120  93.8628244
 100.9432278  52.7622584  88.0533171 101.1169155  52.1969006  87.3007023
 101.4361169  53.5623478  87.8712661  86.7609237  44.7737253  96.1196730
  86.2162705  45.5497061  96.2517004  87.6388587  45.1208057  95.9615851
  93.5496854  38.1048836  88.4977528  93.6712765  37.1765483  88.6968416
  93.2598896  38.1187522  87.5855844  96.4188044  35.7903747  91.6344248
  96.4409741  35.8543080  90.6796228  96.8356103  34.9508256  91.8284754
 101.9307450  52.0789348  85.1530069 102.6258355  52.6996041  85.3717384
 102.2730600  51.2284699  85.4282447  87.5475259  43.9007149  99.0126887
  86.8056995  44.0489784  99.5991517  87.2268004  44.1615414  98.1493636
 103.8298873  49.5289053  86.6817400 104.3550197  49.8676326  85.9566720
 103.7421226  48.5936069  86.4980535  95.5139534  55.5961037  91.0412653
  95.0744524  55.1037415  91.7345510  96.2647651  55.0534004  90.8004728
  87.9931873  51.7872578  91.0437281  88.8189893  51.4876349  90.6635925
  87.6425925  51.0180200  91.4927070  92.9613406  51.1399046  93.1134955
  92.3393415  50.4769751  92.8137183  93.6318273  51.1660178  92.4308603
  86.1940478  49.7058904  92.0026215  85.3572386  49.2781078  91.8210216
  86.1664123  49.8991347  92.9397006  92.5226913  49.6902969  86.5893415
  92.6715033  50.3738434  85.9360088  93.3293356  49.6708059  87.1042871
  90.2779546  45.7168147  87.5954484  90.0325588  44.8130477  87.7934694
  90.4475461  45.7185297  86.6533962  89.5475194  41.4496504  85.0940646
  88.8544438  41.5240859  84.4380682  89.3026945  40.6856848  85.6162163
  96.0222319  52.1851100  84.0605163  95.4496286  52.8041287  83.6075635
  96.5955112  52.7350461  84.5945085  99.2419578  52.4688250  85.1913745
 100.1750251  52.4033811  85.3946621  99.1542791  53.3044517  84.7328278
 101.8707595  51.7854120  82.1517693 101.7921227  51.4513984  83.0453451
 102.6917262  52.2775888  82.1509165  96.4069117  43.5211912  81.4021215
  97.3528222  43.3918120  81.4709633  96.0283362  42.7826574  81.8790643
  94.5912034  41.4461889  81.3376101  93.6843490  41.1495001  81.4138814
  94.8688015  41.1491707  80.4710387  85.5089975  42.7668252  91.7875147
  85.1892759  41.9133560  91.4949521  84.9623403  42.9816830  92.5433114
  89.2869882  45.4830693  95.5044653  89.5055892  46.4147801  95.5232687
  89.6995656  45.1238668  96.2899457  96.2074100  35.9898778  87.4920342
  95.3974828  35.6445863  87.8675588  96.8958517  35.6806322  88.0807953
  98.1364648  35.0676825  89.1144638  98.6895687  35.4872279  89.7734662
  98.3734735  34.1412573  89.1567594  93.3610819  38.3048824  81.4788080
  94.2229983  38.6303722  81.7383897  93.5461163  37.5180320  80.9661146
  85.3778235  46.3871164  93.7568269  84.6841706  45.9725116  93.2438223
  86.1251226  46.4291700  93.1601687 101.5143455  37.1777350  88.6223303
 100.9342124  37.8362154  88.2401355 101.2479388  36.3554695  88.2110720
  87.2914977  46.3189417  91.6334283  87.2685665  46.4177105  90.6816166
  87.6015614  47.1654568  91.9551450  89.9502355  48.3765572  95.7480898
  90.9045609  48.3449515  95.6810829  89.7514879  47.9156196  96.5631124
  90.5401737  46.9466689  98.3151695  91.3594626  47.4410767  98.3386533
  90.8138545  46.0298657  98.2869263 100.2968333  39.3377441  87.6779651
  99.4094188  39.6227091  87.4599846 100.7122322  39.1771204  86.8306928
  88.3052584  53.9185192  92.7651096  88.1707052  53.1585593  92.1989094
  87.8884646  54.6426092  92.2979885  99.4411547  49.1022115  81.7727671
 100.1447397  49.3072118  82.3885327  98.7174196  49.6698877  82.0376754
 100.2709357  44.8531977  87.8929941 100.2144558  45.3100528  87.0537574
 100.8237700  44.0922661  87.7152784  91.4621710  54.8154509  92.9769538
  91.3454094  55.7599941  92.8748229  90.6414156  54.5128071  93.3655338
 101.3498244  49.5404645  83.8226131 102.1843848  49.1085843  83.6403606
 101.1882587  49.3686658  84.7503025 101.0044136  46.0436758  85.1882470
 100.9492940  45.8781029  84.2470914 100.3790192  46.7512791  85.3444660
  85.7936651  41.2804822  99.0143893  86.4395515  40.7703776  99.5031118
  85.5853802  42.0173504  99.5887318  94.3140262  35.5444867  84.7667789
  94.3018932  36.4886707  84.9236060  95.2063684  35.3615012  84.4727250
  92.4876224  55.4682771  96.1925467  93.3903470  55.5006381  96.5091962
  92.2613594  54.5383222  96.2071803  94.2429826  54.2213757  92.8535545
  93.2925457  54.2215619  92.7399918  94.5462312  53.4746492  92.3371580
 102.6459041  61.8637200  89.8439723 102.0823906  61.7727137  89.0756011
 102.5311436  61.0437105  90.3242216 102.1514227  62.6197305  85.5541323
 102.9245103  62.0726292  85.4154198 102.5039626  63.4841554  85.7655784
 104.4880505  58.7789971  83.1859773 104.7406026  58.2571493  82.4243236
 103.5505064  58.6156117  83.2886456 104.2076794  60.6818077  85.3884148
 104.0913052  60.0062981  86.0565232 104.3179054  60.1950451  84.5716301
  98.7079873  57.2004186  92.6689551  97.9178927  57.4561715  92.1929662
  99.1991120  58.0152524  92.7741592 100.6594618  57.5648766  89.6273028
  99.8625781  57.6767460  90.1456524 100.4320210  57.9035418  88.7613919
  99.6577701  63.2737014  88.0162448 100.1702221  64.0680265  88.1668013
 100.3100414  62.5763305  87.9496050  97.6226618  61.6025669  88.7922019
  98.4601840  62.0122677  88.5755726  97.8004885  60.6625111  88.7622213
 102.4842512  53.9637731  90.3165198 103.0586264  53.7412912  89.5838391
 103.0713495  54.0326425  91.0693800 102.8112100  55.9942192  84.3361084
 101.9749412  56.3316879  84.6570358 102.6716869  55.8591172  83.3988221
 104.7865180  50.8378980  89.0440268 104.1329592  50.5227997  88.4196883
 104.7445654  50.2154720  89.7700091  97.6452789  58.9416384  89.4632752
  97.4477189  58.3485745  88.7383819  97.0899453  58.6368594  90.1808691
 103.5641872  57.4516550  89.3417724 102.7509738  57.7510721  89.7482916
 104.0600867  57.0572239  90.0592206 100.1399015  58.4680418  87.1473704
  99.2096603  58.4064873  87.3643666 100.2356486  57.9456371  86.3510346
 100.0584564  54.9935231  89.7351946 100.3191381  55.9080564  89.6261106
 100.8801736  54.5259673  89.8848559 102.6850480  55.8389419  81.5358990
 101.8079946  55.7178220  81.1721237 103.1608233  55.0475498  81.2837879
  94.2052620  60.6266579  91.6300498  94.8923660  60.3128309  91.0421513
  94.0500749  61.5307944  91.3567749  99.0087342  55.5156776  96.0585521
  98.9245531  54.9082445  95.3235931  98.1870048  56.0065794  96.0595018
  93.7820596  58.7067172  93.9017965  93.8204696  58.1730763  94.6955083
  93.2760889  58.1802378  93.2828942  97.4129174  57.4331275  86.9771896
  97.7082615  56.5241953  86.9238950  96.5117209  57.4119014  86.6552898
 100.9423421  55.5087271  92.9599445 100.2210006  56.1223239  92.8206918
 101.7316676  56.0445036  92.8816091  99.1417015  55.1145372  87.1011221
  98.8129721  54.2342751  86.9186327  99.4956386  55.0593041  87.9887610
 102.2558838  55.4018342  87.4686699 102.5954911  55.9304263  86.7465307
 102.7030959  55.7398748  88.2445265 104.2426985  53.8992964  85.6679992
 104.9635348  54.2774216  85.1643708 103.6192290  54.6181841  85.7714970
 104.3890609  53.4340754  88.4977528 104.5106520  52.5057400  88.6968416
 104.0992651  53.4479440  87.5855844 103.3620668  65.0194887  86.5893415
 103.5108788  65.7030351  85.9360088 104.1687111  64.9999977  87.1042871
 101.1173300  61.0460064  87.5954484 100.8719342  60.1422394  87.7934694
 101.2869215  61.0477215  86.6533962 100.3868948  56.7788422  85.0940646
  99.6938193  56.8532777  84.4380682 100.1420700  56.0148766  85.6162163
  96.3483729  58.0960170  91.7875147  96.0286513  57.2425478  91.4949521
  95.8017157  58.3108748  92.5433114  98.1308732  61.6481335  91.6334283
  98.1079420  61.7469022  90.6816166  98.4409368  62.4946486  91.9551450
  69.0515502   4.1651187  79.5922492  69.2912100   4.7969711  80.2701511
  68.2084699   3.8139227  79.8787851  80.9671534   8.2115488  76.5685030
  80.4036399   8.1205425  75.8001318  80.8523929   7.3915392  77.0487523
  78.5135965   9.7066679  79.4069250  79.3057257   9.3657504  78.9915550
  78.7532616   9.8161654  80.3271404  86.5471092  11.8786455  71.8799495
  85.8959072  12.4640536  71.4933509  87.3415455  12.4092650  71.9394532
  80.4726719   8.9675592  72.2786629  81.2457595   8.4204580  72.1399505
  80.8252118   9.8319842  72.4901091  82.3111762  10.2951975  85.4853529
  82.0201628  11.1997606  85.3700195  82.9468746  10.3368502  86.1997598
  87.2701647   9.9813390  82.4803322  86.9702370  10.8838429  82.3719130
  86.9252707   9.7145573  83.3324475  82.2522427  16.7457711  75.4474290
  82.1746457  17.6965536  75.5262771  81.6484070  16.4003583  76.1049216
  84.3498145   9.1675769  77.2828159  84.8136491   9.4463471  76.4932782
  84.0854943   8.2659213  77.1001250  81.2422226   8.7147250  80.2207923
  81.8123583   9.1434518  79.5825407  81.8330338   8.4329835  80.9192108
  84.8112778  10.4371756  84.3000849  84.8757211  10.8992163  85.1359021
  84.1023702   9.8069121  84.4283159  84.5260796  12.1039864  74.1679830
  84.3906471  12.9491399  74.5964678  85.0670608  12.3059141  73.4045764
  77.9790193   9.6215302  74.7407755  78.4914714  10.4158552  74.8913319
  78.6312906   8.9241592  74.6741356  79.7885078  12.7381058  76.8230508
  79.9651706  13.6599023  76.6351492  80.5841911  12.4239477  77.2524888
  80.9116393  14.2559232  82.8240850  81.4623818  14.1276295  82.0517844
  80.0727869  14.5554121  82.4735743  75.9439110   7.9503956  75.5167325
  76.7814332   8.3600964  75.3001033  76.1217378   7.0103398  75.4867519
  86.0736277   9.6496352  74.6803893  85.5457639   8.9149111  74.3677131
  85.5723780  10.4271028  74.4343862  87.1256956  16.1774069  70.6035553
  86.4518655  16.4805766  71.2120510  87.5122778  16.9803150  70.2541010
  89.0729317  13.0172243  76.9103842  89.3652292  13.5777300  76.1916208
  89.5827938  13.3100804  77.6657001  84.0362943  13.7952594  77.9997295
  83.9939121  14.0213441  77.0705827  84.9525641  13.5615969  78.1483097
  82.1528743  10.6715623  77.7959258  82.9469342  10.1765943  77.5941833
  81.4420436  10.1433486  77.4326964  86.9723588  13.0533719  82.1471626
  87.0260610  13.6224655  82.9149342  86.1038369  13.2235604  81.7825663
  84.7300019  11.2444645  81.4757095  84.5911105  10.8763430  82.3483033
  83.9414616  11.7592285  81.3041053  85.3248171  16.3453742  72.8182632
  85.4999927  15.8741785  73.6328254  84.6380959  16.9719508  73.0463893
  86.2805234  10.6226248  78.8645933  85.9455067  10.5827018  79.7603583
  85.7809180   9.9570964  78.3916343  79.8909257  19.4943105  79.5922492
  80.1305855  20.1261629  80.2701511  79.0478453  19.1431145  79.8787851
  72.5265112   6.9744866  78.3545804  73.2136152   6.6606596  77.7666819
  72.3713241   7.8786231  78.0813056  84.4037118  15.3022227  81.9963996
  84.3307290  16.1077198  82.5083301  83.9614512  15.5014193  81.1712017
  84.1926898  14.5393997  75.5066818  83.4094420  15.0815677  75.6005042
  84.8919643  15.0567977  75.9061059  86.8635802  15.2009061  84.1522155
  87.5763774  15.8356526  84.0798056  86.3725831  15.2972927  83.3362156
  81.9147715  12.9503504  84.9727725  82.6157175  13.5839987  85.1257120
  81.4442830  13.2918236  84.2123365  90.0402111  11.2921454  73.2575632
  90.3161955  11.1778049  74.1669507  89.1706610  10.8938939  73.2187806
  86.6756175  15.5407805  76.9008446  86.8578570  14.7229461  77.3636198
  87.4989161  15.7575497  76.4633336  87.0098341  14.4675990  74.1623495
  87.5386107  13.9568445  73.5493657  87.2726560  14.1518520  75.0269028
  77.5115434  12.4839860  81.9058828  78.0968870  11.7383547  82.0386732
  77.3140272  12.7943816  82.7895492  80.3654089  15.5191107  76.9221271
  79.6964464  16.0037235  76.4385311  80.2266958  15.7660327  77.8364649
  72.1033088   5.0545460  80.6263271  72.1417188   4.5209050  81.4200389
  71.5973381   4.5280665  80.0074248  84.5059357  17.5534850  83.5203929
  85.0577665  17.7166472  84.2853014  84.8465551  18.1439288  82.8483954
  87.6427745  15.5016826  80.5067611  87.5178884  14.7006566  79.9978557
  88.3006836  15.9963019  80.0181581  89.7062653  13.3025846  82.1347161
  88.7592989  13.1831197  82.0625488  90.0545426  12.4148344  82.2173423
  86.7109086  13.0978562  78.3351513  86.5634049  12.1695270  78.5159083
  87.5362580  13.1198653  77.8508589  90.3143208  13.9207121  79.4216386
  91.2389756  13.7149982  79.2840837  90.1458512  13.6723522  80.3305728
  90.1038524  14.4392788  74.7778478  90.2775402  13.8739211  74.0252330
  90.5967416  15.2393683  74.5957968  75.9215484   6.4507458  82.8442036
  75.3768952   7.2267265  82.9762311  76.7994834   6.7978262  82.6861158
  91.0913697  13.7559553  71.8775376  91.7864601  14.3766246  72.0962690
  91.4336847  12.9054904  72.1527754  84.6525169  15.1193332  85.5352583
  84.9612295  14.8742479  86.4075283  85.4500651  15.3239970  85.0471453
  84.6745781  17.2731242  77.7657960  84.2350771  16.7807620  78.4590817
  85.4253898  16.7304209  77.5250035  77.1538120  13.4642783  77.7682588
  77.9796140  13.1646554  77.3881231  76.8032172  12.6950405  78.2172377
  82.1219653  12.8169251  79.8380261  81.4999662  12.1539956  79.5382489
  82.7924520  12.8430383  79.1553909  75.3546725  11.3829109  78.7271521
  74.5178633  10.9551283  78.5455523  75.3270370  11.5761552  79.6642313
  81.6833160  11.3673174  73.3138722  81.8321280  12.0508638  72.6605395
  82.4899603  11.3478264  73.8288178  79.4385793   7.3938352  74.3199791
  79.1931835   6.4900682  74.5180001  79.6081707   7.3955502  73.3779269
  85.1828565  13.8621305  70.7850469  84.6102532  14.4811492  70.3320941
  85.7561359  14.4120666  71.3190391  88.4025825  14.1458455  71.9159052
  89.3356498  14.0804016  72.1191927  88.3149038  14.9814722  71.4573584
  91.0313842  13.4624325  68.8762999  90.9527473  13.1284189  69.7698757
  91.8523509  13.9546093  68.8754472  78.4476129   7.1600898  82.2289960
  78.6662139   8.0918006  82.2477994  78.8601903   6.8008872  83.0144764
  74.5384481   8.0641369  80.4813575  73.8447953   7.6495321  79.9683530
  75.2857472   8.1061905  79.8846994  76.4521224   7.9959622  78.3579590
  76.4291912   8.0947310  77.4061473  76.7621860   8.8424773  78.6796756
  79.1108602  10.0535777  82.4726204  80.0651855  10.0219720  82.4056136
  78.9121125   9.5926401  83.2876430  79.7007984   8.6236893  85.0397002
  80.5200873   9.1180972  85.0631839  79.9744792   7.7068862  85.0114570
  77.4658831  15.5955397  79.4896402  77.3313298  14.8355798  78.9234400
  77.0490893  16.3196297  79.0225191  88.6017794  10.7792320  68.4972978
  89.3053644  10.9842323  69.1130633  87.8780442  11.3469082  68.7622061
  80.6227956  16.4924714  79.7014845  80.5060341  17.4370146  79.5993535
  79.8020403  16.1898275  80.0900644  90.5104491  11.2174850  70.5471438
  91.3450095  10.7856048  70.3648912  90.3488834  11.0456863  71.4748332
  81.6482471  17.1452976  82.9170773  82.5509717  17.1776586  83.2337268
  81.4219841  16.2153427  82.9317109  83.4036073  15.8983962  79.5780852
  82.4531704  15.8985824  79.4645224  83.7068559  15.1516697  79.0616887
  99.1388766  21.7344501  80.6426614  99.7767176  21.6151248  79.9389954
  99.0209609  22.6825345  80.7014567  95.9478472  21.6871929  80.5788139
  95.6096984  21.5712994  79.6908674  96.8168241  21.2863094  80.5589145
  91.8065288  23.5407405  76.5685030  91.2430153  23.4497342  75.8001318
  91.6917683  22.7207310  77.0487523  89.3529720  25.0358597  79.4069250
  90.1451012  24.6949421  78.9915550  89.5926370  25.1453572  80.3271404
  97.3864847  27.2078373  71.8799495  96.7352827  27.7932453  71.4933509
  98.1809210  27.7384568  71.9394532  91.3120474  24.2967510  72.2786629
  92.0851350  23.7496497  72.1399505  91.6645873  25.1611759  72.4901091
  93.1505516  25.6243892  85.4853529  92.8595382  26.5289523  85.3700195
  93.7862501  25.6660420  86.1997598  94.0761723  23.0020741  82.0754888
  94.6725296  22.7776763  81.3611851  94.1336695  22.2605486  82.6780336
  93.6486752  20.4560176  69.9105079  93.9012272  19.9341697  69.1488542
  92.7111311  20.2926322  70.0131763  98.6930035  19.4595955  77.7179822
  99.4793124  19.0415378  77.3670239  98.9568739  20.3642047  77.8861471
  98.8640112  24.8968805  72.4168479  98.2285945  24.9703431  73.1289384
  98.5337518  25.4862404  71.7387558  93.3683040  22.3588282  72.1129454
  93.2519299  21.6833186  72.7810538  93.4785300  21.8720656  71.2961607
  95.7114581  21.8198429  75.8176143  95.3472789  21.2929050  76.5289065
  96.5681697  21.4296898  75.6442629  95.3520068  16.8488329  70.8137492
  95.5194471  17.7168565  71.1807963  95.1617237  17.0115611  69.8898781
  98.1095402  25.3105308  82.4803322  97.8096125  26.2130347  82.3719130
  97.7646461  25.0437491  83.3324475  91.5607883  21.7619105  78.5140027
  90.6358380  21.6295319  78.7217718  91.8092296  22.5413324  79.0109969
  95.3309289  19.3045986  71.7984159  95.2108914  19.7503037  72.6369639
  94.6361878  19.6531304  71.2397697  88.9216694  21.4052378  79.3483816
  89.0509075  21.6586857  80.2623227  88.2414145  21.9980086  79.0288471
  93.0916181  32.0749628  75.4474290  93.0140211  33.0257453  75.5262771
  92.4877825  31.7295501  76.1049216 101.0294355  19.7767460  72.6264493
 101.9412212  20.0094846  72.4512190 100.5204002  20.3604504  72.0639571
  99.6363938  24.7593278  80.0178074  99.0072800  24.9238992  79.3154142
  99.2489600  25.1734888  80.7889038 103.5153170  25.6947716  77.3722438
 102.8304208  26.0746617  76.8219471 103.5997019  26.3043043  78.1054386
  95.1891900  24.4967686  77.2828159  95.6530245  24.7755389  76.4932782
  94.9248698  23.5951131  77.1001250  92.0815981  24.0439168  80.2207923
  92.6517338  24.4726436  79.5825407  92.6724092  23.7621752  80.9192108
  94.1260786  20.6190839  74.0917724  94.8284829  21.0711882  74.5591651
  93.7941414  19.9774657  74.7197618  87.8686120  18.8774391  79.3934858
  87.0785174  19.1331920  78.9174969  88.3597367  19.6922729  79.4986899
  89.8200865  19.2418970  76.3518335  89.0232028  19.3537665  76.8701830
  89.5926457  19.5805623  75.4859225  95.6506533  25.7663674  84.3000849
  95.7150965  26.2284081  85.1359021  94.9417456  25.1361039  84.4283159
  86.1523823  19.1304882  81.8249849  86.4031861  20.0151892  82.0907425
  86.6883371  18.9509483  81.0524941  95.3654550  27.4331781  74.1679830
  95.2300225  28.2783317  74.5964678  95.9064363  27.6351059  73.4045764
  88.8183948  24.9507219  74.7407755  89.3308468  25.7450469  74.8913319
  89.4706660  24.2533510  74.6741356  90.6278832  28.0672975  76.8230508
  90.8045461  28.9890940  76.6351492  91.4235666  27.7531395  77.2524888
  89.9131189  20.1137607  86.6992671  89.7984704  19.2122865  86.9999770
  89.0575707  20.3601304  86.3477488  91.7510148  29.5851149  82.8240850
  92.3017573  29.4568213  82.0517844  90.9121624  29.8846038  82.4735743
  86.7832864  23.2795874  75.5167325  87.6208086  23.6892882  75.3001033
  86.9611132  22.3395316  75.4867519  98.6797297  20.9470954  71.2051158
  98.1643920  21.7175559  71.4439546  98.4074605  20.2736090  71.8284220
  96.2644408  15.7920655  76.2636397  95.4086004  15.4027505  76.0842035
  96.6771359  15.8712616  75.4036182  94.0386440  13.4105728  79.6694138
  94.9039437  13.2148537  79.3100028  94.1063949  13.1816080  80.5963495
 103.6531571  23.7003309  73.1404332 102.8761013  23.3614468  72.6959494
 104.3323052  23.7055932  72.4659297  98.4683600  18.8198046  73.0310939
  98.1633735  19.1344195  73.8821083  99.4214042  18.8979466  73.0738272
  96.9130032  24.9788270  74.6803893  96.3851393  24.2441029  74.3677131
  96.4117534  25.7562946  74.4343862 101.8922878  23.1737290  79.7970940
 101.2346552  23.8636551  79.8851068 102.6963277  23.5633722  80.1404926
  91.6448759  15.6407936  77.0410505  92.2192511  15.4183117  76.3083698
  92.2319742  15.7096630  77.7939106 100.7028336  21.5281663  77.8474881
 101.2160218  22.1611655  78.3496591 101.3529560  20.9282858  77.4818242
  91.9718346  17.6712397  71.0606390  91.1355659  18.0087083  71.3815665
  91.8323116  17.5361377  70.1233527  93.9471427  12.5149185  75.7685574
  93.2935839  12.1998202  75.1442189  93.9051901  11.8924925  76.4945397
  95.0582632  22.7968480  67.6838866  94.1509693  22.5657733  67.8830015
  95.5553664  22.0006099  67.8712848  97.9650711  31.5065987  70.6035553
  97.2912409  31.8097684  71.2120510  98.3516533  32.3095067  70.2541010
  97.1809167  19.0031118  80.0933222  96.2631729  19.2246065  79.9354910
  97.5969311  19.0777429  79.2344929  97.9644215  20.4022534  75.2235902
  98.7116034  20.9143931  74.9143024  98.2335805  20.0806587  76.0840296
  96.2370865  22.8981075  72.2062857  95.3282084  22.6140108  72.3035326
  96.2665949  23.3180153  71.3466163 101.4690133  26.5087664  75.9754024
 101.0152460  25.6678574  76.0319215 100.8384099  27.1449063  76.3128804
 100.4123052  17.4379650  77.2054692  99.6745809  16.9257036  77.5364934
 100.6649826  16.9980032  76.3937968  99.9123072  28.3464161  76.9103842
 100.2046046  28.9069218  76.1916208 100.4221692  28.6392722  77.6657001
  86.8059036  20.6186589  76.1878059  86.6083435  20.0255950  75.4629125
  86.2505700  20.3138799  76.9053998  94.7855759  20.5109695  78.3072652
  94.8404369  19.5583532  78.2315128  93.9746961  20.6669134  78.7913950
  95.9346953  24.4389818  69.5450935  95.4966383  23.7225677  69.0856572
  96.6757394  24.6665933  68.9836027  92.7248119  19.1286755  76.0663031
  91.9115985  19.4280926  76.4728223  93.2207113  18.7342444  76.7837513
  94.8756697  29.1244512  77.9997295  94.8332876  29.3505358  77.0705827
  95.7919396  28.8907887  78.1483097 104.0520068  22.7147015  75.6027254
 103.9137966  22.9048611  74.6748443 103.6956287  23.4766398  76.0595305
  92.2162194  16.7005111  81.6824266  92.8561573  16.5593870  80.9847229
  91.3839724  16.4139624  81.3062868  92.9922498  26.0007541  77.7959258
  93.7863096  25.5057861  77.5941833  92.2814190  25.4725404  77.4326964
  97.8117342  28.3825637  82.1471626  97.8654365  28.9516573  82.9149342
  96.9432124  28.5527522  81.7825663  89.3005261  20.1450623  73.8719011
  88.3702849  20.0835078  74.0888973  89.3962733  19.6226575  73.0755652
  89.2190810  16.6705436  76.4597253  89.4797628  17.5850769  76.3506413
  90.0407983  16.2029878  76.6093865  90.6915736  18.0843193  83.6296077
  91.3638789  17.8760555  82.9808726  89.8645522  17.8865279  83.1901309
  96.7705442  22.5485899  83.7058558  97.6997502  22.6997058  83.5327525
  96.3496472  22.6369919  82.8507204  95.5693774  26.5736563  81.4757095
  95.4304860  26.2055347  82.3483033  94.7808370  27.0884202  81.3041053
  96.1641926  31.6745659  72.8182632  96.3393681  31.2033703  73.6328254
  95.4774714  32.3011426  73.0463893  97.1198989  25.9518166  78.8645933
  96.7848822  25.9118936  79.7603583  96.6202935  25.2862882  78.3916343
  91.0943233  21.3585796  84.3898514  90.9563031  20.6266035  84.9910053
  92.0048156  21.2694696  84.1082702 100.0558181  23.2974200  69.1382993
  99.4387351  22.5721028  69.0416045  99.5874669  24.0583560  68.7950067
  93.7225534  21.0705755  83.8782194  94.4325152  20.4298947  83.8368812
  93.6794842  21.3218650  84.8008375  90.7303011  34.8235022  79.5922492
  90.9699609  35.4553546  80.2701511  89.8872208  34.4723062  79.8787851
  91.8456727  17.5159624  68.2604297  90.9686193  17.3948425  67.8966544
  92.3214480  16.7245703  68.0083186  83.3658867  22.3036784  78.3545804
  84.0529906  21.9898514  77.7666819  83.2106995  23.2078149  78.0813056
  88.1693589  17.1926981  82.7830828  88.0851778  16.5852650  82.0481238
  87.3476295  17.6835999  82.7840324  95.2430873  30.6314145  81.9963996
  95.1701044  31.4369116  82.5083301  94.8008266  30.8306110  81.1712017
  95.0320653  29.8685915  75.5066818  94.2488174  30.4107595  75.6005042
  95.7313398  30.3859894  75.9061059  98.3417303  15.6780544  78.1501023
  98.8386002  14.9250506  77.8302093  97.5704284  15.7144861  77.5844232
  97.7029556  30.5300979  84.1522155  98.4157529  31.1648444  84.0798056
  97.2119585  30.6264845  83.3362156  99.4247083  24.4352231  75.7239446
  98.4903362  24.5553694  75.5544151  99.6023752  23.5324698  75.4599456
  94.9252271  17.8197927  77.8772707  94.5550059  17.2668968  78.5653613
  95.4211364  17.2156061  77.3247708 102.8119635  20.2769551  76.2589480
 103.2780087  21.1097542  76.1849783 103.2627135  19.8114532  76.9634739
  92.7541470  28.2795422  84.9727725  93.4550929  28.9131905  85.1257120
  92.2836585  28.6210154  84.2123365 100.8795866  26.6213372  73.2575632
 101.1555710  26.5069967  74.1669507 100.0100365  26.2230857  73.2187806
  97.5149930  30.8699723  76.9008446  97.6972324  30.0521379  77.3636198
  98.3382916  31.0867415  76.4633336  97.8492095  29.7967908  74.1623495
  98.3779862  29.2860363  73.5493657  98.1120315  29.4810438  75.0269028
  88.3509188  27.8131777  81.9058828  88.9362625  27.0675465  82.0386732
  88.1534026  28.1235734  82.7895492  91.2047843  30.8483025  76.9221271
  90.5358219  31.3329152  76.4385311  91.0660713  31.0952245  77.8364649
  82.9426843  20.3837377  80.6263271  82.9810942  19.8500968  81.4200389
  82.4367136  19.8572583  80.0074248  95.3453112  32.8826768  83.5203929
  95.8971420  33.0458390  84.2853014  95.6859305  33.4731206  82.8483954
  90.3217605  15.2301918  84.1225814  90.3858932  16.0916749  83.7103211
  90.2584725  14.6175920  83.3898172  86.5735420  19.1101480  73.7017203
  86.8688861  18.2012158  73.6484256  85.6723456  19.0889219  73.3798205
  98.4821499  30.8308744  80.5067611  98.3572639  30.0298483  79.9978557
  99.1400590  31.3254937  80.0181581  90.1029667  17.1857476  79.6844751
  89.3816253  17.7993444  79.5452225  90.8922923  17.7215241  79.6061397
 100.5456408  28.6317764  82.1347161  99.5986743  28.5123115  82.0625488
 100.8939181  27.7440262  82.2173423  88.3023262  16.7915577  73.8256528
  87.9735968  15.9112956  73.6431634  88.6562633  16.7363246  74.7132917
  97.5502841  28.4270480  78.3351513  97.4027803  27.4987187  78.5159083
  98.3756334  28.4490571  77.8508589  91.4165085  17.0788547  74.1932006
  91.7561158  17.6074468  73.4710614  91.8637206  17.4168953  74.9690572
 101.1536963  29.2499039  79.4216386 102.0783510  29.0441900  79.2840837
 100.9852266  29.0015440  80.3305728  93.4033232  15.5763169  72.3925298
  94.1241595  15.9544421  71.8889015  92.7798536  16.2952045  72.4960276
  97.5464355  16.2808318  73.3283631  97.7627970  17.1632955  73.0272459
  97.0658422  15.8894531  72.5989273  92.2863577  19.2394031  79.9054375
  92.1408157  19.5534334  80.7978657  91.8088780  19.8578931  79.3525274
  94.1459959  16.2296579  79.9535265  94.1321528  15.3337672  79.6167563
  94.8632388  16.2367243  80.5873551 100.9432279  29.7684706  74.7778478
 101.1169156  29.2031129  74.0252330 101.4361170  30.5685601  74.5957968
  86.7609239  21.7799375  82.8442036  86.2162707  22.5559183  82.9762311
  87.6388589  22.1270180  82.6861158  93.5496855  15.1110959  75.2222835
  93.6712767  14.1827605  75.4213722  93.2598898  15.1249645  74.3101150
 101.9307451  29.0851471  71.8775376 102.6258356  29.7058163  72.0962690
 102.2730601  28.2346822  72.1527754  87.5475261  20.9069271  85.7372193
  86.8056997  21.0551907  86.3236824  87.2268005  21.1677537  84.8738943
 103.8298874  26.5351176  73.4062707 104.3550199  26.8738449  72.6812027
 103.7421227  25.5998191  73.2225841  95.4918923  30.4485250  85.5352583
  95.8006050  30.2034396  86.4075283  96.2894405  30.6531888  85.0471453
  95.5139535  32.6023159  77.7657960  95.0744526  32.1099538  78.4590817
  96.2647652  32.0596127  77.5250035  87.9931874  28.7934700  77.7682588
  88.8189894  28.4938472  77.3881231  87.6425926  28.0242323  78.2172377
  92.9613407  28.1461168  79.8380261  92.3393417  27.4831873  79.5382489
  93.6318274  28.1722300  79.1553909  86.1940479  26.7121027  78.7271521
  85.3572388  26.2843201  78.5455523  86.1664125  26.9053470  79.6642313
  92.5226914  26.6965092  73.3138722  92.6715035  27.3800556  72.6605395
  93.3293358  26.6770182  73.8288178  90.2779547  22.7230269  74.3199791
  90.0325589  21.8192599  74.5180001  90.4475462  22.7247420  73.3779269
  89.5475195  18.4558627  71.8185952  88.8544440  18.5302982  71.1625988
  89.3026947  17.6918971  72.3407469  96.0222320  29.1913222  70.7850469
  95.4496287  29.8103409  70.3320941  96.5955113  29.7412584  71.3190391
  99.2419580  29.4750372  71.9159052 100.1750253  29.4095934  72.1191927
  99.1542792  30.3106639  71.4573584 101.8707596  28.7916243  68.8762999
 101.7921228  28.4576106  69.7698757 102.6917263  29.2838011  68.8754472
  96.4069118  20.5274035  68.1266522  97.3528223  20.3980243  68.1954940
  96.0283363  19.7888697  68.6035950  94.5912035  18.4524011  68.0621407
  93.6843491  18.1557124  68.1384121  94.8688016  18.1553829  67.1955693
  85.5089976  19.7730375  78.5120454  85.1892760  18.9195683  78.2194828
  84.9623404  19.9878953  79.2678421  89.2869883  22.4892816  82.2289960
  89.5055893  23.4209924  82.2477994  89.6995657  22.1300790  83.0144764
  93.3610820  15.3110947  68.2033386  94.2229984  15.6365845  68.4629204
  93.5461164  14.5242442  67.6906452  85.3778236  23.3933286  80.4813575
  84.6841707  22.9787239  79.9683530  86.1251227  23.4353823  79.8846994
  87.2914978  23.3251540  78.3579590  87.2685666  23.4239227  77.4061473
  87.6015615  24.1716691  78.6796756  89.9502356  25.3827695  82.4726204
  90.9045610  25.3511637  82.4056136  89.7514880  24.9218319  83.2876430
  90.5401738  23.9528811  85.0397002  91.3594627  24.4472890  85.0631839
  90.8138546  23.0360779  85.0114570 100.2968335  16.3439563  74.4024958
  99.4094190  16.6289214  74.1845152 100.7122324  16.1833327  73.5552235
  88.3052585  30.9247315  79.4896402  88.1707053  30.1647715  78.9234400
  87.8884647  31.6488214  79.0225191  99.4411548  26.1084238  68.4972978
 100.1447398  26.3134241  69.1130633  98.7174197  26.6761000  68.7622061
 100.2709358  21.8594099  74.6175248 100.2144560  22.3162651  73.7782880
 100.8237701  21.0984784  74.4398091  91.4621711  31.8216632  79.7014845
  91.3454095  32.7662064  79.5993535  90.6414157  31.5190193  80.0900644
 101.3498245  26.5466767  70.5471438 102.1843849  26.1147966  70.3648912
 101.1882588  26.3748781  71.4748332 101.0044138  23.0498881  71.9127777
 100.9492941  22.8843152  70.9716221 100.3790193  23.7574914  72.0689967
  85.7936653  18.2866945  85.7389199  86.4395516  17.7765899  86.2276424
  85.5853804  19.0235627  86.3132624  94.3140263  12.5506990  71.4913095
  94.3018933  13.4948830  71.6481366  95.2063685  12.3677135  71.1972557
  92.4876225  32.4744893  82.9170773  93.3903472  32.5068504  83.2337268
  92.2613595  31.5445344  82.9317109  94.2429827  31.2275880  79.5780852
  93.2925458  31.2277742  79.4645224  94.5462313  30.4808615  79.0616887
 102.6459043  38.8699323  76.5685030 102.0823908  38.7789260  75.8001318
 102.5311438  38.0499227  77.0487523 100.1923474  40.3650515  79.4069250
 100.9844766  40.0241339  78.9915550 100.4320125  40.4745490  80.3271404
 102.1514228  39.6259428  72.2786629 102.9245104  39.0788415  72.1399505
 102.5039627  40.4903677  72.4901091 103.9899271  40.9535810  85.4853529
 103.6989137  41.8581441  85.3700195 104.6256255  40.9952338  86.1997598
 104.4880506  35.7852094  69.9105079 104.7406027  35.2633615  69.1488542
 103.5505065  35.6218239  70.0131763 104.2076795  37.6880200  72.1129454
 104.0913053  37.0125103  72.7810538 104.3179055  37.2012574  71.2961607
 102.4001638  37.0911022  78.5140027 101.4752134  36.9587237  78.7217718
 102.6486051  37.8705242  79.0109969  99.7610449  36.7344296  79.3483816
  99.8902830  36.9878775  80.2623227  99.0807900  37.3272004  79.0288471
 103.9309936  47.4041546  75.4474290 103.8533966  48.3549371  75.5262771
 103.3271579  47.0587418  76.1049216 102.9209735  39.3731085  80.2207923
 103.4911092  39.8018354  79.5825407 103.5117847  39.0913670  80.9192108
  98.7079874  34.2066309  79.3934858  97.9178928  34.4623837  78.9174969
  99.1991121  35.0214647  79.4986899 100.6594619  34.5710888  76.3518335
  99.8625783  34.6829582  76.8701830 100.4320212  34.9097540  75.4859225
  96.9917577  34.4596799  81.8249849  97.2425615  35.3443809  82.0907425
  97.5277125  34.2801401  81.0524941  99.6577702  40.2799137  74.7407755
 100.1702223  41.0742387  74.8913319 100.3100415  39.5825427  74.6741356
 101.4672587  43.3964893  76.8230508 101.6439215  44.3182858  76.6351492
 102.2629420  43.0823312  77.2524888 100.7524943  35.4429525  86.6992671
 100.6378459  34.5414782  86.9999770  99.8969461  35.6893222  86.3477488
 102.5903902  44.9143067  82.8240850 103.1411327  44.7860130  82.0517844
 101.7515378  45.2137956  82.4735743  97.6226619  38.6087791  75.5167325
  98.4601841  39.0184800  75.3001033  97.8004887  37.6687233  75.4867519
 102.4842514  30.9699854  77.0410505 103.0586266  30.7475035  76.3083698
 103.0713496  31.0388548  77.7939106 102.8112101  33.0004315  71.0606390
 101.9749413  33.3379001  71.3815665 102.6716870  32.8653294  70.1233527
 104.7865181  27.8441102  75.7685574 104.1329594  27.5290120  75.1442189
 104.7445656  27.2216843  76.4945397  97.6452790  35.9478507  76.1878059
  97.4477190  35.3547867  75.4629125  97.0899454  35.6430717  76.9053998
 103.5641874  34.4578673  76.0663031 102.7509739  34.7572843  76.4728223
 104.0600868  34.0634362  76.7837513 103.0555948  32.0297028  81.6824266
 103.6955328  31.8885787  80.9847229 102.2233479  31.7431542  81.3062868
 103.8316252  41.3299459  77.7959258 104.6256851  40.8349779  77.5941833
 103.1207945  40.8017322  77.4326964 100.1399016  35.4742540  73.8719011
  99.2096604  35.4126996  74.0888973 100.2356488  34.9518493  73.0755652
 100.0584565  31.9997353  76.4597253 100.3191382  32.9142686  76.3506413
 100.8801737  31.5321796  76.6093865 101.5309490  33.4135110  83.6296077
 102.2032544  33.2052473  82.9808726 100.7039277  33.2157196  83.1901309
 101.9336987  36.6877713  84.3898514 101.7956785  35.9557952  84.9910053
 102.8441911  36.5986613  84.1082702 101.5696766  50.1526940  79.5922492
 101.8093364  50.7845464  80.2701511 100.7265962  49.8014980  79.8787851
 102.6850481  32.8451542  68.2604297 101.8079947  32.7240343  67.8966544
 103.1608234  32.0537620  68.0083186  94.2052621  37.6328702  78.3545804
  94.8923661  37.3190432  77.7666819  94.0500750  38.5370066  78.0813056
  99.0087343  32.5218898  82.7830828  98.9245532  31.9144568  82.0481238
  98.1870050  33.0127917  82.7840324 103.5935224  43.6087340  84.9727725
 104.2944684  44.2423823  85.1257120 103.1230339  43.9502071  84.2123365
  99.1902943  43.1423695  81.9058828  99.7756379  42.3967383  82.0386732
  98.9927781  43.4527652  82.7895492 102.0441598  46.1774942  76.9221271
 101.3751973  46.6621070  76.4385311 101.9054467  46.4244163  77.8364649
  93.7820597  35.7129295  80.6263271  93.8204697  35.1792886  81.4200389
  93.2760890  35.1864501  80.0074248 101.1611360  30.5593836  84.1225814
 101.2252686  31.4208667  83.7103211 101.0978480  29.9467837  83.3898172
  97.4129175  34.4393397  73.7017203  97.7082616  33.5304076  73.6484256
  96.5117211  34.4181137  73.3798205 100.9423422  32.5149394  79.6844751
 100.2210008  33.1285362  79.5452225 101.7316678  33.0507159  79.6061397
  99.1417016  32.1207495  73.8256528  98.8129723  31.2404874  73.6431634
  99.4956387  32.0655164  74.7132917 102.2558840  32.4080465  74.1932006
 102.5954912  32.9366386  73.4710614 102.7030960  32.7460871  74.9690572
 104.2426987  30.9055086  72.3925298 104.9635349  31.2836339  71.8889015
 103.6192291  31.6243963  72.4960276 103.1257331  34.5685948  79.9054375
 102.9801912  34.8826252  80.7978657 102.6482535  35.1870849  79.3525274
  97.6002993  37.1091293  82.8442036  97.0556461  37.8851101  82.9762311
  98.4782343  37.4562097  82.6861158 104.3890610  30.4402877  75.2222835
 104.5106521  29.5119523  75.4213722 104.0992652  30.4541563  74.3101150
  98.3869015  36.2361189  85.7372193  97.6450751  36.3843825  86.3236824
  98.0661759  36.4969455  84.8738943  98.8325629  44.1226618  77.7682588
  99.6583649  43.8230390  77.3881231  98.4819681  43.3534240  78.2172377
 103.8007162  43.4753086  79.8380261 103.1787171  42.8123791  79.5382489
 104.4712029  43.5014218  79.1553909  97.0334234  42.0412944  78.7271521
  96.1966142  41.6135119  78.5455523  97.0057879  42.2345388  79.6642313
 103.3620669  42.0257009  73.3138722 103.5108789  42.7092474  72.6605395
 104.1687112  42.0062100  73.8288178 101.1173302  38.0522187  74.3199791
 100.8719344  37.1484517  74.5180001 101.2869216  38.0539338  73.3779269
 100.3868949  33.7850545  71.8185952  99.6938194  33.8594900  71.1625988
 100.1420701  33.0210888  72.3407469  96.3483730  35.1022292  78.5120454
  96.0286515  34.2487601  78.2194828  95.8017159  35.3170871  79.2678421
 100.1263638  37.8184733  82.2289960 100.3449648  38.7501841  82.2477994
 100.5389412  37.4592708  83.0144764  96.2171990  38.7225204  80.4813575
  95.5235462  38.3079157  79.9683530  96.9644981  38.7645740  79.8846994
  98.1308733  38.6543458  78.3579590  98.1079421  38.7531145  77.4061473
  98.4409369  39.5008609  78.6796756 100.7896111  40.7119613  82.4726204
 101.7439364  40.6803555  82.4056136 100.5908634  40.2510236  83.2876430
 101.3795493  39.2820729  85.0397002 102.1988382  39.7764807  85.0631839
 101.6532301  38.3652697  85.0114570  99.1446340  46.2539232  79.4896402
  99.0100807  45.4939633  78.9234400  98.7278402  46.9780132  79.0225191
 102.3015465  47.1508549  79.7014845 102.1847850  48.0953982  79.5993535
 101.4807912  46.8482111  80.0900644  96.6330407  33.6158863  85.7389199
  97.2789271  33.1057817  86.2276424  96.4247558  34.3527544  86.3132624
 103.3269980  47.8036811  82.9170773 104.2297226  47.8360421  83.2337268
 103.1007350  46.8737262  82.9317109 104.6214352  51.0421213  80.6263271
 104.6598451  50.5084803  81.4200389 104.1154645  50.5156418  80.0074248
  90.7303012  11.8297145  66.3167799  90.9699611  12.4615669  66.9946817
  89.8872209  11.4785185  66.6033158 102.6459044  15.8761446  63.2930337
 102.0823909  15.7851382  62.5246624 102.5311439  15.0561350  63.7732829
 100.1923476  17.3712637  66.1314557 100.9844768  17.0303462  65.7160856
 100.4320126  17.4807612  67.0516710 102.1514230  16.6321550  59.0031936
 102.9245106  16.0850537  58.8644812 102.5039629  17.4965800  59.2146397
 103.9899272  17.9597933  72.2098835 103.6989138  18.8643563  72.0945502
 104.6256257  18.0014460  72.9242905 103.9309937  24.4103668  62.1719597
 103.8533967  25.3611494  62.2508077 103.3271581  24.0649541  62.8294523
 102.9209736  16.3793208  66.9453229 103.4911093  16.8080476  66.3070714
 103.5117848  16.0975793  67.6437415  99.6577703  17.2861259  61.4653061
 100.1702224  18.0804510  61.6158626 100.3100416  16.5887550  61.3986663
 101.4672588  20.4027016  63.5475815 101.6439216  21.3244980  63.3596799
 102.2629422  20.0885435  63.9770194 102.5903904  21.9205190  69.5486157
 103.1411329  21.7922253  68.7763151 101.7515379  22.2200079  69.1981050
  97.6226620  15.6149914  62.2412632  98.4601842  16.0246922  62.0246340
  97.8004888  14.6749356  62.2112826 103.8316254  18.3361581  64.5204565
 104.6256852  17.8411901  64.3187140 103.1207946  17.8079444  64.1572270
 101.5696767  27.1589062  66.3167799 101.8093365  27.7907587  66.9946817
 100.7265963  26.8077103  66.6033158  94.2052622  14.6390824  65.0791111
  94.8923662  14.3252554  64.4912126  94.0500751  15.5432189  64.8058362
 103.5935226  20.6149462  71.6973032 104.2944685  21.2485945  71.8502426
 103.1230341  20.9564194  70.9368671  99.1902944  20.1485817  68.6304135
  99.7756381  19.4029505  68.7632039  98.9927782  20.4589774  69.5140799
 102.0441599  23.1837065  63.6466577 101.3751974  23.6683193  63.1630617
 101.9054469  23.4306285  64.5609956  93.7820599  12.7191418  67.3508578
  93.8204698  12.1855008  68.1445696  93.2760891  12.1926623  66.7319555
  97.6002994  14.1153415  69.5687343  97.0556462  14.8913223  69.7007617
  98.4782344  14.4624220  69.4106464  98.8325630  21.1288740  64.4927895
  99.6583650  20.8292512  64.1126538  98.4819682  20.3596363  64.9417683
 103.8007163  20.4815209  66.5625568 103.1787172  19.8185914  66.2627796
 104.4712030  20.5076341  65.8799216  97.0334235  19.0475067  65.4516828
  96.1966143  18.6197241  65.2700829  97.0057880  19.2407510  66.3887619
 103.3620670  19.0319132  60.0384029 103.5108790  19.7154596  59.3850701
 104.1687113  19.0124222  60.5533484 101.1173303  15.0584310  61.0445098
 100.8719345  14.1546640  61.2425308 101.2869218  15.0601460  60.1024576
 100.1263639  14.8246856  68.9535267 100.3449649  15.7563964  68.9723301
 100.5389413  14.4654830  69.7390071  96.2171992  15.7287327  67.2058882
  95.5235463  15.3141279  66.6928836  96.9644983  15.7707863  66.6092301
  98.1308734  15.6605580  65.0824897  98.1079422  15.7593268  64.1306780
  98.4409371  16.5070731  65.4042063 100.7896112  17.7181735  69.1971511
 101.7439366  17.6865678  69.1301443 100.5908636  17.2572359  70.0121737
 101.3795494  16.2882851  71.7642309 102.1988383  16.7826930  71.7877146
 101.6532302  15.3714820  71.7359876  99.1446341  23.2601355  66.2141709
  99.0100809  22.5001756  65.6479707  98.7278403  23.9842255  65.7470498
 102.3015467  24.1570672  66.4260152 102.1847851  25.1016104  66.3238842
 101.4807913  23.8544233  66.8145951 103.3269981  24.8098934  69.6416080
 104.2297227  24.8422544  69.9582575 103.1007351  23.8799385  69.6562416
 104.6214353  28.0483335  67.3508578 104.6598453  27.5146926  68.1445696
 104.1154646  27.5218541  66.7319555  43.1896071  65.5308170 111.7063572
  42.5384050  66.1162250 111.3197586  43.9840433  66.0614365 111.7658609
  37.1151698  62.6197307 112.1050706  37.8882574  62.0726294 111.9663582
  37.4677097  63.4841556 112.3165168  39.4517976  58.7789973 109.7369156
  39.7043496  58.2571494 108.9752619  38.5142535  58.6156119 109.8395840
  44.6671336  63.2198602 112.2432556  44.0317169  63.2933228 112.9553461
  44.3368742  63.8092201 111.5651636  39.1714264  60.6818079 111.9393531
  39.0550522  60.0062982 112.6074615  39.2816524  60.1950453 111.1225684
  41.1551292  55.1718126 110.6401569  41.3225695  56.0398362 111.0072040
  40.9648461  55.3345408 109.7162858  41.1340513  57.6275783 111.6248236
  41.0140138  58.0732834 112.4633716  40.4393101  57.9761101 111.0661774
  46.8325579  58.0997257 112.4528570  47.7443435  58.3324643 112.2776267
  46.3235226  58.6834301 111.8903648  39.9292009  58.9420635 113.9181801
  40.6316053  59.3941679 114.3855728  39.5972638  58.3004454 114.5461695
  34.6215171  63.2737016 114.5671832  35.1339692  64.0680266 114.7177396
  35.2737884  62.5763307 114.5005433  44.4828520  59.2700751 111.0315235
  43.9675144  60.0405356 111.2703623  44.2105829  58.5965887 111.6548297
  44.2714823  57.1427843 112.8575016  43.9664959  57.4573992 113.7085160
  45.2245266  57.2209263 112.9002349  42.7161255  63.3018066 114.5067970
  42.1882617  62.5670826 114.1941208  42.2148758  64.0792743 114.2607939
  37.7749570  55.9942194 110.8870467  36.9386882  56.3316880 111.2079742
  37.6354340  55.8591174 109.9497604  40.8613856  61.1198277 107.5102943
  39.9540917  60.8887530 107.7094092  41.3584888  60.3235896 107.6976925
  43.7675439  58.7252331 115.0499979  44.5147258  59.2373728 114.7407101
  44.0367028  58.4036384 115.9104373  42.0402089  61.2210872 112.0326934
  41.1313308  60.9369904 112.1299403  42.0697173  61.6409950 111.1730240
  41.7378177  62.7619615 109.3715012  41.2997607  62.0455474 108.9120649
  42.4788618  62.9895730 108.8100104  45.8589404  61.6203997 108.9647070
  45.2418575  60.8950825 108.8680122  45.3905893  62.3813357 108.6214144
  37.6487950  55.8389421 108.0868374  36.7717417  55.7178222 107.7230621
  38.1245703  55.0475499 107.8347263  43.3495579  54.6038114 113.1547708
  43.5659193  55.4862752 112.8536536  42.8689646  54.2124328 112.4253350
  38.3258138  65.0194889 113.1402799  38.4746258  65.7030353 112.4869472
  39.1324582  64.9999979 113.6552255  41.8253544  67.5143019 110.6114546
  41.2527511  68.1333206 110.1585018  42.3986337  68.0642381 111.1454468
  47.6738820  67.1146040 108.7027076  47.5952452  66.7805903 109.5962834
  48.4948487  67.6067807 108.7018549  42.2100342  58.8503832 107.9530599
  43.1559447  58.7210040 108.0219017  41.8314587  58.1118494 108.4300027
  40.3943259  56.7753808 107.8885484  39.4874715  56.4786921 107.9648198
  40.6719240  56.4783626 107.0219770  39.1642044  53.6340743 108.0297463
  40.0261208  53.9595642 108.2893281  39.3492388  52.8472239 107.5170529
  46.0999558  54.6669360 114.2289035  45.2125413  54.9519011 114.0109229
  46.5153547  54.5063124 113.3816312  45.2442772  64.4314035 108.3237055
  45.9478622  64.6364037 108.9394710  44.5205421  64.9990797 108.5886138
  46.0740582  60.1823896 114.4439325  46.0175784  60.6392448 113.6046957
  46.6268925  59.4214581 114.2662168  49.8845388  55.9713628 115.2689444
  49.6282322  55.5710264 116.0997652  49.2598256  56.6857422 115.1439583
  47.1529469  64.8696564 110.3735515  47.9875073  64.4377763 110.1912989
  46.9913812  64.6978578 111.3012409  46.8075361  61.3728677 111.7391854
  46.7524165  61.2072949 110.7980298  46.1821417  62.0804710 111.8954044
  43.1896072  42.5370292  98.4308879  42.5384052  43.1224373  98.0442892
  43.9840435  43.0676487  98.4903916  37.1151699  39.6259430  98.8296013
  37.8882575  39.0788417  98.6908889  37.4677098  40.4903679  99.0410474
  39.4517977  35.7852096  96.4614463  39.7043497  35.2633617  95.6997926
  38.5142536  35.6218241  96.5641146  44.6671337  40.2260724  98.9677863
  44.0317170  40.2995351  99.6798768  44.3368743  40.8154323  98.2896942
  39.1714265  37.6880202  98.6638838  39.0550524  37.0125105  99.3319922
  39.2816525  37.2012576  97.8470991  41.1551293  32.1780248  97.3646876
  41.3225696  33.0460485  97.7317347  40.9648462  32.3407530  96.4408165
  41.1340514  34.6337906  98.3493542  41.0140139  35.0794957  99.1879023
  40.4393103  34.9823224  97.7907081  38.8947406  47.4041548 101.9983674
  38.8171436  48.3549373 102.0772154  38.2909050  47.0587420 102.6558600
  46.8325580  35.1059379  99.1773876  47.7443437  35.3386766  99.0021574
  46.3235228  35.6896423  98.6148955  49.3184395  41.0239635 103.9231822
  48.6335433  41.4038537 103.3728855  49.4028244  41.6334962 104.6563769
  40.9923125  39.8259606 103.8337543  41.4561470  40.1047309 103.0442165
  40.7279923  38.9243050 103.6510634  39.9292011  35.9482758 100.6427108
  40.6316054  36.4003802 101.1101034  39.5972639  35.3066577 101.2707001
  55.7787147  37.8910298 105.0434494  55.0250856  37.3217696 104.8878498
  55.9134688  37.8572963 105.9905129  41.1685775  42.7623701 100.7189213
  41.0331450  43.6075236 101.1474061  41.7095588  42.9642978  99.9555147
  34.6215173  40.2799139 101.2917138  35.1339693  41.0742389 101.4422703
  35.2737886  39.5825429 101.2250740  36.4310057  43.3964895 103.3739892
  36.6076686  44.3182860 103.1860876  37.2266891  43.0823314 103.8034271
  44.4828522  36.2762874  97.7560542  43.9675145  37.0467478  97.9948929
  44.2105830  35.6028010  98.3793603  49.4562796  39.0295228  99.6913715
  48.6792238  38.6906388  99.2468877  50.1354277  39.0347851  99.0168680
  44.2714825  34.1489966  99.5820323  43.9664960  34.4636115 100.4330466
  45.2245267  34.2271386  99.6247656  42.7161257  40.3080189 101.2313277
  42.1882618  39.5732949 100.9186515  42.2148759  41.0854865 100.9853245
  47.6954103  38.5029210 106.3480323  47.0377777  39.1928471 106.4360452
  48.4994502  38.8925641 106.6914310  46.5059561  36.8573582 104.3984265
  47.0191443  37.4903574 104.9005975  47.1560785  36.2574778 104.0327625
  37.7749571  33.0004316  97.6115774  36.9386884  33.3379003  97.9325049
  37.6354341  32.8653296  96.6742911  40.8613857  38.1260399  94.2348250
  39.9540919  37.8949653  94.4339399  41.3584889  37.3298019  94.4222232
  43.7681936  46.8357906  97.1544936  43.0943634  47.1389603  97.7629894
  44.1547758  47.6386987  96.8050393  43.7675440  35.7314453 101.7745286
  44.5147259  36.2435851 101.4652408  44.0367030  35.4098506 102.6349679
  42.0402090  38.2272994  98.7572240  41.1313309  37.9432027  98.8544710
  42.0697174  38.6472073  97.8975547  47.2721358  41.8379584 102.5263408
  46.8183685  40.9970494 102.5828598  46.6415324  42.4740982 102.8638188
  45.7154297  43.6756080 103.4613226  46.0077271  44.2361137 102.7425592
  46.2252917  43.9684641 104.2166385  41.7378178  39.7681738  96.0960319
  41.2997608  39.0517597  95.6365956  42.4788619  39.9957853  95.5345410
  40.6787922  44.4536431 104.5506679  40.6364101  44.6797278 103.6215211
  41.5950621  44.2199806 104.6992480  49.8551293  38.0438935 102.1536637
  49.7169191  38.2340531 101.2257827  49.4987512  38.8058318 102.6104688
  49.8820672  40.1115462 107.1647909  50.3157179  40.0190751 108.0130963
  50.5952253  40.0872962 106.5267925  41.9673151  47.0037579  99.3692015
  42.1424907  46.5325622 100.1837638  41.2805939  47.6303345  99.5973276
  45.8589406  38.6266119  95.6892376  45.2418576  37.9012948  95.5925429
  45.3905894  39.3875480  95.3459451  36.5334236  50.1526942 106.1431876
  36.7730834  50.7845466 106.8210894  35.6903433  49.8014982 106.4297235
  37.6487952  32.8451544  94.8113681  36.7717418  32.7240345  94.4475927
  38.1245705  32.0537622  94.5592569  40.8351878  45.1977834 102.0576201
  40.0519399  45.7399514 102.1514426  41.5344623  45.7151814 102.4570442
  51.9978285  36.7112829 106.3428698  51.9868161  37.5937545 105.9722631
  51.1295665  36.3584380 106.1483235  45.2278308  39.7644151 102.2748830
  44.2934587  39.8845613 102.1053534  45.4054977  38.8616618 102.0108840
  48.6150860  35.6061470 102.8098864  49.0811312  36.4389462 102.7359167
  49.0658360  35.1406452 103.5144123  46.6827091  41.9505291  99.8085016
  46.9586935  41.8361886 100.7178890  45.8131590  41.5522776  99.7697189
  43.3181155  46.1991642 103.4517830  43.5003549  45.3813298 103.9145582
  44.1414141  46.4159334 103.0142720  43.6523320  45.1259827 100.7132878
  44.1811087  44.6152282 100.1003040  43.9151540  44.8102358 101.5778411
  37.0079068  46.1774944 103.4730654  36.3389444  46.6621072 102.9894694
  36.8691938  46.4244164 104.3874033  44.2852724  46.1600663 107.0576995
  44.1603864  45.3590403 106.5487940  44.9431815  46.6546856 106.5690965
  43.3534066  43.7562399 104.8860897  43.2059028  42.8279107 105.0668467
  44.1787559  43.7782490 104.4017972  46.9568188  44.5790958 105.9725770
  47.8814735  44.3733819 105.8350221  46.7883491  44.3307359 106.8815111
  43.3495580  31.6100237  99.8793014  43.5659195  32.4924875  99.5781842
  42.8689647  31.2186450  99.1498656  46.7463504  45.0976626 101.3287861
  46.9200381  44.5323048 100.5761714  47.2392395  45.8977520 101.1467351
  52.6002895  37.8613049 102.9478161  53.0434041  37.1120374 102.5497284
  51.7229405  37.8523185 102.5651893  47.7338676  44.4143390  98.4284759
  48.4289581  45.0350083  98.6472074  48.0761827  43.5638741  98.7037137
  49.6330100  41.8643096  99.9572090  50.1581424  42.2030368  99.2321410
  49.5452452  40.9290111  99.7735225  41.3170760  47.9315079 104.3167343
  40.8775751  47.4391457 105.0100200  42.0678877  47.3888046 104.0759419
  38.3258139  42.0257011  99.8648106  38.4746260  42.7092476  99.2114778
  39.1324583  42.0062101 100.3797561  52.1435760  39.3318287 105.3400609
  52.9782651  39.7708091 105.5038169  52.2794889  38.8556940 104.5208854
  41.8253545  44.5205142  97.3359853  41.2527512  45.1395329  96.8830325
  42.3986339  45.0704503  97.8699775  45.0450805  44.8042292  98.4668435
  45.9781478  44.7387853  98.6701311  44.9574017  45.6398559  98.0082968
  47.6738821  44.1208162  95.4272383  47.5952453  43.7868026  96.3208141
  48.4948488  44.6129930  95.4263855  42.2100343  35.8565954  94.6775906
  43.1559448  35.7272163  94.7464324  41.8314588  35.1180616  95.1545334
  56.1893562  38.0485908 107.7754738  56.9196951  37.7871196 108.3362442
  55.5800508  37.3114630 107.8156806  40.3943260  33.7815931  94.6130791
  39.4874716  33.4849044  94.6893504  40.6719242  33.4845749  93.7465077
  39.1642045  30.6402866  94.7542770  40.0261209  30.9657764  95.0138587
  39.3492389  29.8534362  94.2415836  46.0999560  31.6731483 100.9534341
  45.2125415  31.9581133 100.7354536  46.5153549  31.5125246 100.1061618
  45.2442773  41.4376158  95.0482361  45.9478623  41.6426160  95.6640017
  44.5205422  42.0052919  95.3131445  46.0740583  37.1886019 101.1684631
  46.0175785  37.6454570 100.3292264  46.6268926  36.4276703 100.9907474
  49.8845389  32.9775751 101.9934751  49.6282324  32.5772386 102.8242959
  49.2598257  33.6919545 101.8684890  54.1957727  35.7171824 104.5006042
  53.6357285  35.7865013 105.2737604  53.5901230  35.5412809 103.7805539
  37.2652936  47.1508551 106.2524229  37.1485320  48.0953984 106.1502919
  36.4445382  46.8482113 106.6410028  47.1529470  41.8758687  97.0980821
  47.9875074  41.4439885  96.9158296  46.9913813  41.7040700  98.0257716
  46.8075363  38.3790800  98.4637161  46.7524166  38.2135071  97.5225605
  46.1821418  39.0866833  98.6199350  40.0461052  46.5567799 106.1290236
  39.0956683  46.5569661 106.0154608  40.3493538  45.8100534 105.6126270
  55.7813746  52.3928338 107.1935998  56.4192156  52.2735085 106.4899338
  55.6634588  53.3409182 107.2523950  52.5903452  52.3455766 107.1297523
  52.2521963  52.2296831 106.2418058  53.4593220  51.9446931 107.1098529
  48.4490268  54.1991242 103.1194414  47.8855133  54.1081179 102.3510701
  48.3342663  53.3791147 103.5996906  53.0723235  53.4990618 113.0883728
  53.0611876  53.1043416 112.2164232  53.2343874  52.7656690 113.6817500
  45.9954699  55.6942434 105.9578634  46.7875991  55.3533259 105.5424933
  46.2351350  55.8037409 106.8780787  54.0289826  57.8662210  98.4308879
  53.3777806  58.4516290  98.0442892  54.8234189  58.3968405  98.4903916
  47.9545453  54.9551347  98.8296013  48.7276329  54.4080334  98.6908889
  48.3070852  55.8195597  99.0410474  49.7930496  56.2827729 112.0362912
  49.5020362  57.1873360 111.9209579  50.4287480  56.3244257 112.7506982
  50.7186703  53.6604578 108.6264272  51.3150275  53.4360600 107.9121235
  50.7761674  52.9189323 109.2289720  50.2911731  51.1144013  96.4614463
  50.5437252  50.5925535  95.6997926  49.3536290  50.9510159  96.5641146
  55.3355014  50.1179792 104.2689206  56.1218103  49.6999215 103.9179623
  55.5993718  51.0225884 104.4370854  55.5065091  55.5552642  98.9677863
  54.8710924  55.6287269  99.6798768  55.1762498  56.1446241  98.2896942
  60.7363441  50.0555025 105.1722185  61.4688613  49.4854242 105.4060014
  59.9802797  49.6676625 105.6128690  50.0108020  53.0172119  98.6638838
  49.8944278  52.3417023  99.3319922  50.1210280  52.5304493  97.8470991
  52.3539561  52.4782266 102.3685527  51.9897768  51.9512887 103.0798449
  53.2106677  52.0880735 102.1952012  58.2588862  43.7676599 109.6316793
  57.9272186  44.6372010 109.4078008  57.6634475  43.4512883 110.3110824
  51.9945048  47.5072166  97.3646876  52.1619450  48.3752403  97.7317347
  51.8042217  47.6699448  96.4408165  54.7520381  55.9689145 109.0312706
  54.4521104  56.8714184 108.9228513  54.4071441  55.7021328 109.8833859
  48.2032863  52.4202942 105.0649410  47.2783359  52.2879156 105.2727102
  48.4517276  53.1997161 105.5619353  58.1517525  48.4871685 106.7110143
  57.2434402  48.4187094 106.4168904  58.1005121  48.9643630 107.5391969
  51.9734269  49.9629824  98.3493542  51.8533894  50.4086874  99.1879023
  51.2786857  50.3115141  97.7907081  45.5641674  52.0636215 105.8993199
  45.6934055  52.3170694 106.8132611  44.8839125  52.6563923 105.5797854
  49.7341161  62.7333465 101.9983674  49.6565191  63.6841290 102.0772154
  49.1302804  62.3879338 102.6558600  52.2258391  49.9061331 114.6545041
  51.4491725  50.4655251 114.6447905  52.8648954  50.3918114 115.1759911
  60.0179171  46.6888124 108.4888017  59.3753552  46.9820657 107.8427812
  59.5134100  46.5741044 109.2941214  57.6719335  50.4351297  99.1773876
  58.5837191  50.6678684  99.0021574  57.1628982  51.0188341  98.6148955
  50.4804763  52.7146784 114.2163008  51.2219447  53.2531828 113.9397831
  49.7741748  53.3413073 114.3734559  55.9560103  54.8575925 112.8135169
  56.3643459  54.4158335 112.0689801  55.2337364  54.2828552 113.0669362
  52.3091173  49.7948531 110.1868726  53.1552368  50.2187945 110.3303375
  52.2489810  49.1382156 110.8807289  56.2788917  55.4177115 106.5687458
  55.6497780  55.5822829 105.8663526  55.8914579  55.8318725 107.3398422
  60.1578149  56.3531553 103.9231822  59.4729187  56.7330454 103.3728855
  60.2421998  56.9626880 104.6563769  55.4590618  47.4552900 111.8449900
  55.2151550  48.2094960 111.3084175  55.7350548  47.8338247 112.6797147
  57.4129081  53.9991512 110.5227165  57.6245976  54.6423272 109.8461546
  57.3658829  53.1653829 110.0549095  55.0155310  46.6109333 107.4263737
  54.1539789  46.9090586 107.7180475  55.0417744  46.8279732 106.4944770
  51.8316879  55.1551523 103.8337543  52.2955225  55.4339226 103.0442165
  51.5673677  54.2534968 103.6510634  48.7240960  54.7023005 106.7717306
  49.2942317  55.1310273 106.1334791  49.3149072  54.4205590 107.4701492
  50.7685765  51.2774676 100.6427108  51.4709809  51.7295719 101.1101034
  50.4366394  50.6358495 101.2707001  44.5111099  49.5358228 105.9444242
  43.7210153  49.7915757 105.4684352  45.0022347  50.3506566 106.0496282
  58.5274909  56.8763468 108.6949523  59.3492352  56.4743655 108.4132204
  58.5237312  56.7731702 109.6465638  46.4625845  49.9002808 102.9027718
  45.6657008  50.0121502 103.4211214  46.2351437  50.2389460 102.0368609
  52.2931512  56.4247511 110.8510233  52.3575945  56.8867918 111.6868405
  51.5842436  55.7944876 110.9792543  42.7948802  49.7888719 108.3759232
  43.0456841  50.6735729 108.6416808  43.3308351  49.6093320 107.6034324
  66.6180902  53.2202216 105.0434494  65.8644610  52.6509614 104.8878498
  66.7528443  53.1864881 105.9905129  52.0079530  58.0915618 100.7189213
  51.8725205  58.9367154 101.1474061  52.5489342  58.2934896  99.9555147
  45.4608927  55.6091056 101.2917138  45.9733448  56.4034307 101.4422703
  46.1131640  54.9117347 101.2250740  47.2703812  58.7256813 103.3739892
  47.4470440  59.6474777 103.1860876  48.0660645  58.4115232 103.8034271
  48.3935127  60.2434986 109.3750234  48.9442552  60.1152050 108.6027228
  47.5546603  60.5429875 109.0245127  52.1902298  56.5086114 113.7194465
  52.7230635  55.7474402 113.4893773  51.6616379  56.2159766 114.4618620
  55.3571993  41.6146180 109.2488107  55.0136263  42.5047822 109.1727217
  55.7250956  41.4247838 108.3857692  43.4257844  53.9379711 102.0676709
  44.2633066  54.3476719 101.8510417  43.6036112  52.9979153 102.0376903
  55.3222276  51.6054791  97.7560542  54.8068900  52.3759396  97.9948929
  55.0499585  50.9319927  98.3793603  52.9069387  46.4504492 102.8145780
  52.0510983  46.0611342 102.6351419  53.3196339  46.5296453 101.9545566
  54.4368534  43.9850835 107.2137340  53.9333329  43.9480971 106.4005145
  54.7299141  44.8943578 107.2733997  50.6811420  44.0689565 106.2203522
  51.5464416  43.8732374 105.8609411  50.7488929  43.8399917 107.1472879
  60.2956550  54.3587146  99.6913715  59.5185993  54.0198305  99.2468877
  60.9748031  54.3639769  99.0168680  55.1108579  49.4781883  99.5820323
  54.8058715  49.7928033 100.4330466  56.0639021  49.5563303  99.6247656
  53.5555011  55.6372107 101.2313277  53.0276373  54.9024866 100.9186515
  53.0542514  56.4146783 100.9853245  58.5347857  53.8321127 106.3480323
  57.8771532  54.5220389 106.4360452  59.3388256  54.2217559 106.6914310
  48.2873739  46.2991773 103.5919889  48.8617491  46.0766954 102.8593082
  48.8744721  46.3680468 104.3448490  57.3453316  52.1865500 104.3984265
  57.8585198  52.8195492 104.9005975  57.9954540  51.5866695 104.0327625
  48.6143326  48.3296234  97.6115774  47.7780638  48.6670921  97.9325049
  48.4748095  48.1945214  96.6742911  50.5896406  43.1733022 102.3194958
  49.9360819  42.8582039 101.6951573  50.5476881  42.5508762 103.0454781
  51.7007611  53.4552317  94.2348250  50.7934673  53.2241570  94.4339399
  52.1978643  52.6589936  94.4222232  54.6075690  62.1649824  97.1544936
  53.9337389  62.4681521  97.7629894  54.9941512  62.9678905  96.8050393
  53.8234147  49.6614955 106.6442606  52.9056708  49.8829902 106.4864294
  54.2394290  49.7361266 105.7854313  54.6069195  51.0606371 101.7745286
  55.3541013  51.5727768 101.4652408  54.8760784  50.7390424 102.6349679
  52.8795845  53.5564912  98.7572240  51.9707064  53.2723945  98.8544710
  52.9090929  53.9763990  97.8975547  58.1115112  57.1671501 102.5263408
  57.6577439  56.3262411 102.5828598  57.4809079  57.8032900 102.8638188
  57.0548032  48.0963487 103.7564075  56.3170788  47.5840874 104.0874318
  57.3074805  47.6563869 102.9447352  56.5548051  59.0047998 103.4613226
  56.8471026  59.5653055 102.7425592  57.0646672  59.2976559 104.2166385
  57.1559659  40.8739739 104.3505844  57.4618536  40.0137103 104.0631760
  57.8812264  41.4657360 104.1504838  43.4484015  51.2770426 102.7387442
  43.2508415  50.6839787 102.0138509  42.8930679  50.9722636 103.4563381
  51.4280739  51.1693532 104.8582036  51.4829349  50.2167369 104.7824512
  50.6171941  51.3252972 105.3423334  52.5771933  55.0973656  96.0960319
  52.1391362  54.3809514  95.6365956  53.3182373  55.3249770  95.5345410
  49.3673099  49.7870592 102.6172414  48.5540964  50.0864763 103.0237607
  49.8632093  49.3926281 103.3346897  51.5181677  59.7828349 104.5506679
  51.4757855  60.0089195 103.6215211  52.4344375  59.5491724 104.6992480
  54.9647310  50.2512417 111.4487308  55.3196698  50.4783890 112.3081774
  55.6119442  50.5830793 110.8264564  60.6945047  53.3730853 102.1536637
  60.5562946  53.5632449 101.2257827  60.3381266  54.1350235 102.6104688
  48.8587173  47.3588948 108.2333649  49.4986553  47.2177707 107.5356613
  48.0264704  47.0723461 107.8572251  60.7214427  55.4407380 107.1647909
  61.1550934  55.3482669 108.0130963  61.4346008  55.4164880 106.5267925
  49.6347477  56.6591378 104.3468642  50.4288076  56.1641698 104.1451217
  48.9239170  56.1309241 103.9836347  54.4542322  59.0409474 108.6981009
  54.5079344  59.6100410 109.4658725  53.5857103  59.2111359 108.3335047
  45.9430241  50.8034460 100.4228395  45.0127829  50.7418915 100.6398357
  46.0387713  50.2810413  99.6265036  45.8615790  47.3289273 103.0106636
  46.1222607  48.2434606 102.9015797  46.6832962  46.8613715 103.1603249
  47.3340715  48.7427030 110.1805461  48.0063769  48.5344392 109.5318110
  46.5070502  48.5449116 109.7410693  61.5829976  55.4831080 109.6980794
  61.7765867  56.3876891 109.9440069  61.4830595  55.0238499 110.5319379
  53.2366287  45.3688971 112.1971122  52.5894202  46.0678920 112.1035598
  54.0067303  45.8025115 112.5647370  53.4130422  53.2069736 110.2567941
  54.3422482  53.3580895 110.0836909  52.9921452  53.2953756 109.4016588
  52.2118753  57.2320400 108.0266479  52.0729839  56.8639185 108.8992417
  51.4233350  57.7468040 107.8550437  52.8066905  62.3329497  99.3692015
  52.9818661  61.8617540 100.1837638  52.1199693  62.9595263  99.5973276
  53.7623968  56.6102003 105.4155317  53.4273801  56.5702773 106.3112967
  53.2627914  55.9446719 104.9425727  47.7368212  52.0169633 110.9407898
  47.5988010  51.2849872 111.5419437  48.6473136  51.9278533 110.6592086
  56.6983160  53.9558037  95.6892376  56.0812331  53.2304865  95.5925429
  56.2299649  54.7167397  95.3459451  50.3650513  51.7289592 110.4291578
  51.0750132  51.0882784 110.3878196  50.3219821  51.9802487 111.3517758
  47.3727991  65.4818859 106.1431876  47.6124589  66.1137384 106.8210894
  46.5297187  65.1306899 106.4297235  48.4881706  48.1743461  94.8113681
  47.6111172  48.0532262  94.4475927  48.9639459  47.3829540  94.5592569
  58.3554699  56.6296529 111.5812136  57.4681478  56.2922451 111.7038535
  58.9253250  55.8979561 111.8180902  40.0083846  52.9620621 104.9055188
  40.6954886  52.6482351 104.3176203  39.8531975  53.8661986 104.6322439
  44.8118568  47.8510818 109.3340211  44.7276757  47.2436487 108.5990621
  43.9901275  48.3419836 109.3349708  51.8855852  61.2897982 108.5473380
  51.8126024  62.0952953 109.0592684  51.4433246  61.4889948 107.7221401
  51.6745632  60.5269752 102.0576201  50.8913154  61.0691432 102.1514426
  52.3738377  61.0443731 102.4570442  54.9842282  46.3364381 104.7010407
  55.4810982  45.5834344 104.3811477  54.2129264  46.3728698 104.1353616
  62.8372040  52.0404747 106.3428698  62.8261916  52.9229462 105.9722631
  61.9689419  51.6876298 106.1483235  56.0672063  55.0936069 102.2748830
  55.1328342  55.2137531 102.1053534  56.2448731  54.1908535 102.0108840
  51.5677251  48.4781764 104.4282091  51.1975038  47.9252805 105.1162997
  52.0636343  47.8739898 103.8757091  59.4544614  50.9353388 102.8098864
  59.9205066  51.7681379 102.7359167  59.9052115  50.4698369 103.5144123
  49.3966450  58.9379259 111.5237109  50.0975909  59.5715742 111.6766503
  48.9261565  59.2793991 110.7632748  57.5220845  57.2797209  99.8085016
  57.7980689  57.1653804 100.7178890  56.6525344  56.8814694  99.7697189
  57.4261277  43.3033975 106.8489765  56.5124357  43.5338202 107.0171972
  57.8554378  43.3872419 107.7003798  57.1967735  51.4923867 109.3489659
  56.5439186  51.7399774 108.6942112  57.5748115  50.6788005 109.0152137
  54.1574909  61.5283560 103.4517830  54.3397304  60.7105216 103.9145582
  54.9807895  61.7451252 103.0142720  54.4917075  60.4551745 100.7132878
  55.0204841  59.9444200 100.1003040  54.7545294  60.1394275 101.5778411
  44.9934168  58.4715614 108.4568212  45.5787604  57.7259302 108.5896116
  44.7959006  58.7819571 109.3404876  47.8472823  61.5066862 103.4730654
  47.1783198  61.9912989 102.9894694  47.7085692  61.7536082 104.3874033
  39.5851822  51.0421215 107.1772655  39.6235922  50.5084805 107.9709773
  39.0792115  50.5156420 106.5583632  43.2160400  49.7685317 100.2526586
  43.5113841  48.8595995 100.1993640  42.3148436  49.7473056  99.9307589
  55.1246479  61.4892581 107.0576995  54.9997618  60.6882321 106.5487940
  55.7825570  61.9838774 106.5690965  46.7454647  47.8441313 106.2354135
  46.0241233  48.4577281 106.0961608  47.5347903  48.3799078 106.1570781
  57.1881387  59.2901601 108.6856545  56.2411723  59.1706952 108.6134872
  57.5364160  58.4024099 108.7682806  44.9448241  47.4499414 100.3765911
  44.6160948  46.5696793 100.1941017  45.2987612  47.3947083 101.2642301
  54.1927820  59.0854317 104.8860897  54.0452783  58.1571024 105.0668467
  55.0181314  59.1074408 104.4017972  48.0590065  47.7372384 100.7441389
  48.3986137  48.2658305 100.0219998  48.5062185  48.0752790 101.5199956
  57.7961942  59.9082876 105.9725770  58.7208490  59.7025737 105.8350221
  57.6277246  59.6599277 106.8815111  50.7533505  46.1209435 110.1944457
  50.4130326  45.3217248 110.5965137  50.0472512  46.4211146 109.6221290
  51.4049977  43.2058747 108.6471780  52.2276047  42.7319226 108.5250671
  51.6488041  43.9849231 109.1470467  50.0458212  46.2347006  98.9434682
  50.7666574  46.6128259  98.4398399  49.4223516  46.9535883  99.0469660
  54.1889335  46.9392155  99.8793014  54.4052949  47.8216793  99.5781842
  53.7083402  46.5478368  99.1498656  48.9288556  49.8977868 106.4563759
  48.7833137  50.2118171 107.3488040  48.4513760  50.5162768 105.9034657
  50.7884939  46.8880416 106.5044648  50.7746508  45.9921509 106.1676946
  51.5057367  46.8951080 107.1382934  52.6411070  47.3217756 108.5497776
  52.3828847  48.2434827 108.5482106  52.1096110  46.9248191 109.2398240
  57.5857258  60.4268543 101.3287861  57.7594136  59.8614966 100.5761714
  58.0786150  61.2269438 101.1467351  43.4034218  52.4383212 109.3951420
  42.8587686  53.2143020 109.5271694  44.2813568  52.7854017 109.2370541
  50.1921835  45.7694796 101.7732219  50.3137746  44.8411442 101.9723106
  49.9023877  45.7833482 100.8610534  53.0613025  43.4549707 104.9098938
  53.0834722  43.5189040 103.9550918  53.4781084  42.6154215 105.1039445
  63.4396650  53.1904966 102.9478161  63.8827796  52.4412291 102.5497284
  62.5623160  53.1815103 102.5651893  58.5732431  59.7435308  98.4284759
  59.2683336  60.3642000  98.6472074  58.9155581  58.8930659  98.7037137
  60.4723854  57.1935013  99.9572090  60.9975178  57.5322286  99.2321410
  60.3846207  56.2582029  99.7735225  52.1564515  63.2606996 104.3167343
  51.7169505  62.7683375 105.0100200  52.9072632  62.7179964 104.0759419
  44.6356854  59.4518537 104.3191972  45.4614874  59.1522309 103.9390615
  44.2850906  58.6826160 104.7681760  49.6038387  58.8045006 106.3889645
  48.9818396  58.1415711 106.0891873  50.2743254  58.8306137 105.7063293
  42.8365459  57.3704864 105.2780905  41.9997367  56.9427038 105.0964906
  42.8089104  57.5637307 106.2151696  49.1651894  57.3548929  99.8648106
  49.3140014  58.0384393  99.2114778  49.9718337  57.3354019 100.3797561
  57.5719398  50.6591311 113.8915323  58.4729260  50.5197776 113.5999321
  57.6467372  50.8245766 114.8313501  51.9062203  48.0358166 112.7368510
  51.0365512  48.3291732 112.4651098  52.1421683  48.6198611 113.4575773
  62.9829514  54.6610205 105.3400609  63.8176406  55.1000009 105.5038169
  63.1188643  54.1848858 104.5208854  60.0321020  52.2189939 111.2878096
  60.5075142  52.4117586 110.4796948  59.1086586  52.2749125 111.0421480
  46.9204527  53.3814107 100.8709175  46.6750569  52.4776437 101.0689385
  47.0900441  53.3831257  99.9288653  54.6101237  44.2537783 110.2533930
  55.1283181  44.9898810 109.9280419  54.2556369  44.5601776 111.0880689
  46.1900174  49.1142464  98.3695336  45.4969419  49.1886819  97.7135372
  45.9451926  48.3502808  98.8916853  54.8613831  40.6738065 105.7734827
  55.1415585  40.0061255 106.3995253  55.6464438  40.8667161 105.2609491
  52.6647299  59.8497059  97.3359853  52.0921266  60.4687246  96.8830325
  53.2380093  60.3996421  97.8699775  58.7322689  49.0955699 109.5206402
  59.6840112  49.1953797 109.5418626  58.5626140  48.3033968 110.0304486
  56.7537069  46.1811283 109.7065803  56.1587001  46.4616295 109.0112291
  56.4686765  46.6705184 110.4782544  55.8844559  60.1334209  98.4668435
  56.8175232  60.0679771  98.6701311  55.7967772  60.9690476  98.0082968
  58.5132576  59.4500080  95.4272383  58.4346207  59.1159943  96.3208141
  59.3342243  59.9421848  95.4263855  61.2110767  52.3161819 108.6348702
  61.1787087  51.3777820 108.8208385  61.8211391  52.3945856 107.9014526
  53.0494098  51.1857872  94.6775906  53.9953203  51.0564080  94.7464324
  52.6708343  50.4472534  95.1545334  61.3605255  49.1072863 108.6806985
  60.8444304  48.3231319 108.4936914  62.2445204  48.7791579 108.8453504
  59.0215982  42.8513878 104.6402797  58.8240804  42.5428966 105.5246129
  59.6315688  43.5775517 104.7700727  67.0287317  53.3777826 107.7754738
  67.7590705  53.1163114 108.3362442  66.4194262  52.6406548 107.8156806
  65.1102614  51.5185689 108.3729190  64.3835778  51.3841653 107.7645681
  64.6949901  51.8262517 109.1785908  51.2337015  49.1107848  94.6130791
  50.3268470  48.8140961  94.6893504  51.5112996  48.8137667  93.7465077
  42.1514955  50.4314212 105.0629837  41.8317740  49.5779520 104.7704211
  41.6048384  50.6462790 105.8187805  45.9294863  53.1476653 108.7799344
  46.1480873  54.0793761 108.7987378  46.3420637  52.7884627 109.5654148
  52.8499081  43.6544738 100.7675032  52.0399809  43.3091823 101.1430278
  53.5383498  43.3452282 101.3562644  54.7789629  42.7322785 102.3899329
  55.3320668  43.1518238 103.0489352  55.0159715  41.8058533 102.4322285
  50.0035800  45.9694784  94.7542770  50.8654964  46.2949682  95.0138587
  50.1886144  45.1826280  94.2415836  42.0203215  54.0517123 107.0322959
  41.3266687  53.6371076 106.5192913  42.7676206  54.0937660 106.4356378
  58.1568436  44.8423310 101.8977993  57.5767105  45.5008114 101.5156045
  57.8904369  44.0200655 101.4865410  56.6072002  44.2428368 104.0999313
  57.1071781  44.3544902 103.2913632  57.2507610  43.9389421 104.7400122
  43.9339958  53.9835377 104.9088974  43.9110646  54.0823064 103.9570857
  44.2440594  54.8300528 105.2306140  46.5927336  56.0411532 109.0235588
  47.5470589  56.0095475 108.9565520  46.3939859  55.5802156 109.8385814
  47.1826718  54.6112648 111.5906386  48.0019607  55.1056727 111.6141223
  47.4563526  53.6944616 111.5623953  56.9393314  47.0023401 100.9534341
  56.0519169  47.2873051 100.7354536  57.3547303  46.8417164 100.1061618
  60.2907850  47.0269922 104.6688680  61.0668240  47.5166374 104.9413297
  59.5655984  47.4527976 105.1260550  62.7280409  47.7397541 105.7262621
  63.3224900  47.4993277 105.0155929  62.8006993  47.0204671 106.3536157
  44.9477565  61.5831152 106.0405786  44.8132032  60.8231553 105.4743784
  44.5309627  62.3072052 105.5734575  56.0836528  56.7668075  95.0482361
  56.7872378  56.9718078  95.6640017  55.3599176  57.3344837  95.3131445
  56.9134338  52.5177936 101.1684631  56.8569539  52.9746488 100.3292264
  57.4662680  51.7568621 100.9907474  60.7239144  48.3067668 101.9934751
  60.4676078  47.9064304 102.8242959  60.0992012  49.0211462 101.8684890
  65.0351482  51.0463742 104.5006042  64.4751040  51.1156931 105.2737604
  64.4294985  50.8704726 103.7805539  48.1046690  62.4800469 106.2524229
  47.9879075  63.4245901 106.1502919  47.2839137  62.1774030 106.6410028
  57.9923225  57.2050604  97.0980821  58.8268829  56.7731803  96.9158296
  57.8307568  57.0332618  98.0257716  57.6469117  53.7082718  98.4637161
  57.5917921  53.5426989  97.5225605  57.0215172  54.4158751  98.6199350
  50.9565243  43.2090827  98.0422479  50.9443912  44.1532667  98.1990750
  51.8488664  43.0260972  97.7481940  49.1301205  63.1328731 109.4680157
  50.0328451  63.1652341 109.7846652  48.9038575  62.2029182 109.4826493
  50.8854807  61.8859717 106.1290236  49.9350438  61.8861579 106.0154608
  51.1887293  61.1392452 105.6126270  54.7717362  39.8033603 102.2968416
  54.0049758  39.2492090 102.4425098  55.1828067  39.8755472 103.1582567
  59.2884022  69.5283160 103.1194414  58.7248887  69.4373097 102.3510701
  59.1736417  68.7083065 103.5996906  64.8683581  73.1954128  98.4308879
  64.2171561  73.7808208  98.0442892  65.6627944  73.7260323  98.4903916
  58.7939208  70.2843265  98.8296013  59.5670084  69.7372252  98.6908889
  59.1464607  71.1487514  99.0410474  61.1305486  66.4435931  96.4614463
  61.3831006  65.9217452  95.6997926  60.1930045  66.2802076  96.5641146
  66.3458846  70.8844560  98.9677863  65.7104679  70.9579186  99.6798768
  66.0156252  71.4738159  98.2896942  60.8501774  68.3464037  98.6638838
  60.7338033  67.6708940  99.3319922  60.9604034  67.8596411  97.8470991
  63.1933315  67.8074184 102.3685527  62.8291523  67.2804805 103.0798449
  64.0500431  67.4172653 102.1952012  62.8338802  62.8364084  97.3646876
  63.0013205  63.7044320  97.7317347  62.6435971  62.9991365  96.4408165
  62.8128023  65.2921741  98.3493542  62.6927648  65.7378792  99.1879023
  62.1180612  65.6407059  97.7907081  68.5113089  65.7643214  99.1773876
  69.4230946  65.9970601  99.0021574  68.0022736  66.3480259  98.6148955
  61.6079520  66.6066593 100.6427108  62.3103563  67.0587637 101.1101034
  61.2760148  65.9650412 101.2707001  55.3504854  64.8650146 105.9444242
  54.5603908  65.1207675 105.4684352  55.8416101  65.6798484 106.0496282
  57.3019599  65.2294725 102.9027718  56.5050762  65.3413420 103.4211214
  57.0745191  65.5681377 102.0368609  56.3002682  70.9382974 101.2917138
  56.8127202  71.7326224 101.4422703  56.9525394  70.2409264 101.2250740
  54.2651598  69.2671628 102.0676709  55.1026820  69.6768637 101.8510417
  54.4429866  68.3271070 102.0376903  66.1616031  66.9346709  97.7560542
  65.6462654  67.7051314  97.9948929  65.8893339  66.2611845  98.3793603
  63.7463142  61.7796410 102.8145780  62.8904738  61.3903260 102.6351419
  64.1590093  61.8588371 101.9545566  61.5205174  59.3981483 106.2203522
  62.3858171  59.2024291 105.8609411  61.5882683  59.1691835 107.1472879
  65.9502334  64.8073801  99.5820323  65.6452469  65.1219950 100.4330466
  66.9032776  64.8855221  99.6247656  64.3948766  70.9664024 101.2313277
  63.8670127  70.2316784 100.9186515  63.8936268  71.7438701 100.9853245
  59.1267493  61.6283691 103.5919889  59.7011245  61.4058872 102.8593082
  59.7138476  61.6972385 104.3448490  59.4537080  63.6588152  97.6115774
  58.6174393  63.9962838  97.9325049  59.3141850  63.5237131  96.6742911
  61.4290161  58.5024940 102.3194958  60.7754573  58.1873957 101.6951573
  61.3870635  57.8800680 103.0454781  62.5401366  68.7844235  94.2348250
  61.6328428  68.5533488  94.4339399  63.0372398  67.9881854  94.4222232
  65.4462949  66.3898289 101.7745286  66.1934768  66.9019686 101.4652408
  65.7154539  66.0682342 102.6349679  63.7189599  68.8856830  98.7572240
  62.8100818  68.6015862  98.8544710  63.7484683  69.3055908  97.8975547
  67.8941786  63.4255405 103.7564075  67.1564543  62.9132791 104.0874318
  68.1468560  62.9855787 102.9447352  67.9953413  56.2031657 104.3505844
  68.3012290  55.3429020 104.0631760  68.7206018  56.7949277 104.1504838
  54.2877770  66.6062344 102.7387442  54.0902169  66.0131704 102.0138509
  53.7324434  66.3014554 103.4563381  63.4165687  70.4265573  96.0960319
  62.9785117  69.7101432  95.6365956  64.1576128  70.6541688  95.5345410
  60.2066853  65.1162510 102.6172414  59.3934719  65.4156680 103.0237607
  60.7025847  64.7218199 103.3346897  56.7823995  66.1326378 100.4228395
  55.8521583  66.0710833 100.6398357  56.8781467  65.6102330  99.6265036
  56.7009544  62.6581190 103.0106636  56.9616362  63.5726524 102.9015797
  57.5226717  62.1905633 103.1603249  67.5376915  69.2849955  95.6892376
  66.9206085  68.5596783  95.5925429  67.0693403  70.0459315  95.3459451
  59.3275461  63.5035379  94.8113681  58.4504927  63.3824180  94.4475927
  59.8033214  62.7121457  94.5592569  50.8477601  68.2912539 104.9055188
  51.5348641  67.9774269 104.3176203  50.6925729  69.1953904 104.6322439
  55.6512323  63.1802735 109.3340211  55.5670512  62.5728405 108.5990621
  54.8295029  63.6711754 109.3349708  65.8236037  61.6656299 104.7010407
  66.3204736  60.9126261 104.3811477  65.0523018  61.7020616 104.1353616
  62.4071005  63.8073682 104.4282091  62.0368793  63.2544722 105.1162997
  62.9030098  63.2031815 103.8757091  50.4245577  66.3713132 107.1772655
  50.4629676  65.8376723 107.9709773  49.9185870  65.8448338 106.5583632
  54.0554154  65.0977234 100.2526586  54.3507595  64.1887913 100.1993640
  53.1542190  65.0764974  99.9307589  57.5848401  63.1733231 106.2354135
  56.8634987  63.7869199 106.0961608  58.3741657  63.7090996 106.1570781
  55.7841996  62.7791332 100.3765911  55.4554702  61.8988711 100.1941017
  56.1381367  62.7239001 101.2642301  58.8983819  63.0664302 100.7441389
  59.2379892  63.5950223 100.0219998  59.3455940  63.4044708 101.5199956
  60.8851966  61.5638923  98.9434682  61.6060329  61.9420176  98.4398399
  60.2617270  62.2827800  99.0469660  65.0283089  62.2684072  99.8793014
  65.2446704  63.1508710  99.5781842  64.5477156  61.8770286  99.1498656
  61.6278693  62.2172334 106.5044648  61.6140262  61.3213427 106.1676946
  62.3451122  62.2242997 107.1382934  61.0315589  61.0986714 101.7732219
  61.1531501  60.1703360 101.9723106  60.7417632  61.1125400 100.8610534
  63.9006780  58.7841624 104.9098938  63.9228477  58.8480957 103.9550918
  64.3174839  57.9446133 105.1039445  60.0045648  72.6840847  99.8648106
  60.1533769  73.3676311  99.2114778  60.8112092  72.6645937 100.3797561
  57.7598281  68.7106024 100.8709175  57.5144323  67.8068354 101.0689385
  57.9294196  68.7123175  99.9288653  57.0293929  64.4434382  98.3695336
  56.3363174  64.5178737  97.7135372  56.7845681  63.6794725  98.8916853
  65.7007585  56.0029983 105.7734827  65.9809339  55.3353172 106.3995253
  66.4858192  56.1959079 105.2609491  63.5041054  75.1788977  97.3359853
  62.9315021  75.7979164  96.8830325  64.0773847  75.7288339  97.8699775
  69.3526330  74.7791998  95.4272383  69.2739962  74.4451861  96.3208141
  70.1735997  75.2713765  95.4263855  63.8887852  66.5149790  94.6775906
  64.8346957  66.3855998  94.7464324  63.5102097  65.7764452  95.1545334
  69.8609737  58.1805796 104.6402797  69.6634558  57.8720884 105.5246129
  70.4709442  58.9067435 104.7700727  62.0730769  64.4399766  94.6130791
  61.1662225  64.1432879  94.6893504  62.3506750  64.1429584  93.7465077
  52.9908710  65.7606130 105.0629837  52.6711494  64.9071438 104.7704211
  52.4442138  65.9754708 105.8187805  63.6892835  58.9836656 100.7675032
  62.8793564  58.6383741 101.1430278  64.3777252  58.6744200 101.3562644
  65.6183383  58.0614703 102.3899329  66.1714422  58.4810156 103.0489352
  65.8553470  57.1350451 102.4322285  60.8429554  61.2986701  94.7542770
  61.7048718  61.6241600  95.0138587  61.0279898  60.5118197  94.2415836
  68.9962191  60.1715228 101.8977993  68.4160860  60.8300032 101.5156045
  68.7298123  59.3492572 101.4865410  67.4465757  59.5720286 104.0999313
  67.9465535  59.6836820 103.2913632  68.0901365  59.2681338 104.7400122
  54.7733712  69.3127295 104.9088974  54.7504400  69.4114982 103.9570857
  55.0834349  70.1592446 105.2306140  67.7787069  62.3315318 100.9534341
  66.8912924  62.6164969 100.7354536  68.1941058  62.1709082 100.1061618
  66.9230282  72.0959993  95.0482361  67.6266132  72.3009995  95.6640017
  66.1992931  72.6636755  95.3131445  67.7528092  67.8469854 101.1684631
  67.6963294  68.3038406 100.3292264  68.3056435  67.0860539 100.9907474
  71.5632898  63.6359586 101.9934751  71.3069832  63.2356222 102.8242959
  70.9385766  64.3503380 101.8684890  68.8316979  72.5342522  97.0980821
  69.6662583  72.1023721  96.9158296  68.6701322  72.3624536  98.0257716
  68.4862872  69.0374635  98.4637161  68.4311675  68.8718907  97.5225605
  67.8608927  69.7450668  98.6199350  61.7958997  58.5382744  98.0422479
  61.7837667  59.4824584  98.1990750  62.6882419  58.3552890  97.7481940
  65.6111117  55.1325521 102.2968416  64.8443512  54.5784008 102.4425098
  66.0221822  55.2047390 103.1582567  43.1896073  19.5432415  85.1554185
  42.5384053  20.1286495  84.7688199  43.9840436  20.0738610  85.2149223
  37.1151700  16.6321552  85.5541320  37.8882576  16.0850539  85.4154195
  37.4677099  17.4965801  85.7655781  39.4517978  12.7914218  83.1859769
  39.7043499  12.2695740  82.4243232  38.5142537  12.6280364  83.2886453
  44.6671338  17.2322847  85.6923170  44.0317171  17.3057473  86.4044074
  44.3368745  17.8216446  85.0142249  39.1714267  14.6942324  85.3884144
  39.0550525  14.0187228  86.0565229  39.2816527  14.2074698  84.5716297
  41.1551295   9.1842371  84.0892182  41.3225697  10.0522607  84.4562653
  40.9648464   9.3469653  83.1653471  41.1340516  11.6400029  85.0738849
  41.0140141  12.0857079  85.9124329  40.4393104  11.9885346  84.5152387
  38.8947408  24.4103670  88.7228980  38.8171437  25.3611495  88.8017461
  38.2909051  24.0649543  89.3803907  46.8325582  12.1121502  85.9019183
  47.7443438  12.3448888  85.7266881  46.3235229  12.6958546  85.3394262
  49.3184396  18.0301758  90.6477128  48.6335434  18.4100659  90.0974162
  49.4028245  18.6397085  91.3809076  40.9923126  16.8321728  90.5582850
  41.4561471  17.1109431  89.7687472  40.7279924  15.9305173  90.3755940
  39.9292012  12.9544881  87.3672415  40.6316055  13.4065924  87.8346341
  39.5972640  12.3128699  87.9952308  55.7787149  14.8972421  91.7679801
  55.0250857  14.3279819  91.6123805  55.9134690  14.8635085  92.7150435
  41.1685777  19.7685823  87.4434520  41.0331451  20.6137359  87.8719368
  41.7095589  19.9705101  86.6800454  34.6215174  17.2861261  88.0162445
  35.1339695  18.0804512  88.1668010  35.2737887  16.5887552  87.9496047
  36.4310059  20.4027018  90.0985198  36.6076687  21.3244982  89.9106182
  37.2266892  20.0885437  90.5279578  44.4828523  13.2824996  84.4805849
  43.9675146  14.0529601  84.7194236  44.2105831  12.6090132  85.1038910
  49.4562797  16.0357351  86.4159022  48.6792240  15.6968510  85.9714184
  50.1354278  16.0409974  85.7413987  44.2714826  11.1552088  86.3065630
  43.9664962  11.4698237  87.1575773  45.2245268  11.2333508  86.3492963
  42.7161258  17.3142312  87.9558584  42.1882619  16.5795071  87.6431821
  42.2148761  18.0916988  87.7098552  47.6954104  15.5091332  93.0725630
  47.0377778  16.1990594  93.1605759  48.4994503  15.8987764  93.4159616
  46.5059563  13.8635705  91.1229572  47.0191444  14.4965697  91.6251282
  47.1560787  13.2636900  90.7572932  37.7749573  10.0066439  84.3361081
  36.9386885  10.3441125  84.6570355  37.6354342   9.8715419  83.3988217
  40.8613858  15.1322522  80.9593557  39.9540920  14.9011775  81.1584706
  41.3584890  14.3360141  81.1467538  43.7681937  23.8420029  83.8790243
  43.0943636  24.1451726  84.4875201  44.1547759  24.6449109  83.5295700
  43.7675441  12.7376576  88.4990593  44.5147260  13.2497973  88.1897715
  44.0367031  12.4160629  89.3594986  42.0402091  15.2335117  85.4817547
  41.1313311  14.9494150  85.5790017  42.0697175  15.6534195  84.6220854
  47.2721359  18.8441706  89.2508714  46.8183686  18.0032616  89.3073905
  46.6415326  19.4803105  89.5883495  45.7154298  20.6818203  90.1858533
  46.0077273  21.2423260  89.4670898  46.2252919  20.9746764  90.9411692
  41.7378179  16.7743860  82.8205625  41.2997609  16.0579719  82.3611263
  42.4788620  17.0019975  82.2590717  40.6787923  21.4598554  91.2751986
  40.6364102  21.6859400  90.3460518  41.5950622  21.2261929  91.4237787
  49.8551294  15.0501057  88.8781944  49.7169193  15.2402653  87.9503133
  49.4987513  15.8120440  89.3349995  49.8820674  17.1177584  93.8893216
  50.3157180  17.0252874  94.7376270  50.5952254  17.0935085  93.2513231
  41.9673152  24.0099702  86.0937322  42.1424908  23.5387745  86.9082945
  41.2805940  24.6365468  86.3218583  45.8589407  15.6328242  82.4137683
  45.2418578  14.9075070  82.3170736  45.3905895  16.3937602  82.0704757
  36.5334237  27.1589064  92.8677182  36.7730836  27.7907588  93.5456201
  35.6903434  26.8077104  93.1542542  37.6487953   9.8513666  81.5358987
  36.7717419   9.7302467  81.1721234  38.1245706   9.0599745  81.2837876
  40.8351879  22.2039957  88.7821508  40.0519401  22.7461637  88.8759732
  41.5344624  22.7213936  89.1815749  51.9978286  13.7174952  93.0674005
  51.9868163  14.5999667  92.6967938  51.1295666  13.3646503  92.8728542
  45.2278310  16.7706273  88.9994137  44.2934588  16.8907736  88.8298841
  45.4054978  15.8678740  88.7354146  48.6150861  12.6123593  89.5344171
  49.0811313  13.4451584  89.4604473  49.0658361  12.1468574  90.2389429
  46.6827092  18.9567414  86.5330323  46.9586936  18.8424009  87.4424197
  45.8131591  18.5584899  86.4942496  43.3181156  23.2053765  90.1763136
  43.5003551  22.3875421  90.6390889  44.1414142  23.4221457  89.7388026
  43.6523322  22.1321950  87.4378185  44.1811088  21.6214405  86.8248347
  43.9151541  21.8164480  88.3023718  37.0079070  23.1837067  90.1975961
  36.3389445  23.6683194  89.7140001  36.8691939  23.4306287  91.1119339
  44.2852725  23.1662786  93.7822301  44.1603865  22.3652526  93.2733247
  44.9431817  23.6608979  93.2936271  43.3534067  20.7624522  91.6106204
  43.2059030  19.8341229  91.7913774  44.1787561  20.7844613  91.1263279
  46.9568189  21.5853081  92.6971076  47.8814736  21.3795942  92.5595528
  46.7883492  21.3369482  93.6060418  43.3495581   8.6162360  86.6038321
  43.5659196   9.4986998  86.3027149  42.8689649   8.2248573  85.8743963
  46.7463505  22.1038748  88.0533168  46.9200383  21.5385171  87.3007020
  47.2392396  22.9039643  87.8712658  52.6002896  14.8675171  89.6723468
  53.0434042  14.1182496  89.2742591  51.7229407  14.8585307  89.2897200
  47.7338678  21.4205513  85.1530066  48.4289582  22.0412205  85.3717381
  48.0761828  20.5700864  85.4282444  49.6330101  18.8705218  86.6817397
  50.1581425  19.2092491  85.9566717  49.5452453  17.9352233  86.4980532
  41.3170762  24.9377201  91.0412650  40.8775752  24.4453580  91.7345507
  42.0678878  24.3950169  90.8004725  38.3258141  19.0319134  86.5893412
  38.4746261  19.7154598  85.9360085  39.1324584  19.0124224  87.1042868
  52.1435761  16.3380409  92.0645915  52.9782652  16.7770213  92.2283476
  52.2794890  15.8619063  91.2454161  41.8253546  21.5267264  84.0605160
  41.2527513  22.1457451  83.6075632  42.3986340  22.0766626  84.5945082
  45.0450806  21.8104414  85.1913742  45.9781479  21.7449976  85.3946618
  44.9574019  22.6460681  84.7328275  47.6738823  21.1270285  82.1517690
  47.5952454  20.7930148  83.0453447  48.4948489  21.6192053  82.1509162
  42.2100345  12.8628077  81.4021212  43.1559449  12.7334285  81.4709630
  41.8314590  12.1242739  81.8790640  56.1893564  15.0548031  94.5000045
  56.9196952  14.7933319  95.0607748  55.5800509  14.3176753  94.5402113
  40.3943262  10.7878053  81.3376097  39.4874717  10.4911166  81.4138811
  40.6719243  10.4907871  80.4710384  39.1642046   7.6464989  81.4788077
  40.0261210   7.9719887  81.7383894  39.3492391   6.8596485  80.9661142
  46.0999561   8.6793605  87.6779648  45.2125416   8.9643256  87.4599843
  46.5153550   8.5187369  86.8306925  45.2442774  18.4438280  81.7727668
  45.9478624  18.6488283  82.3885323  44.5205423  19.0115042  82.0376751
  46.0740585  14.1948141  87.8929938  46.0175786  14.6516693  87.0537570
  46.6268927  13.4338826  87.7152781  49.8845391   9.9837873  88.7180058
  49.6282325   9.5834509  89.5488265  49.2598259  10.6981667  88.5930197
  54.1957728  12.7233947  91.2251349  53.6357286  12.7927136  91.9982911
  53.5901232  12.5474931  90.5050845  37.2652937  24.1570674  92.9769535
  37.1485321  25.1016106  92.8748225  36.4445383  23.8544235  93.3655334
  47.1529472  18.8820809  83.8226128  47.9875076  18.4502008  83.6403603
  46.9913815  18.7102823  84.7503022  46.8075364  15.3852923  85.1882467
  46.7524168  15.2197194  84.2470911  46.1821419  16.0928956  85.3444657
  40.0461053  23.5629922  92.8535542  39.0956684  23.5631784  92.7399915
  40.3493539  22.8162657  92.3371577  55.7813747  29.3990460  93.9181305
  56.4192157  29.2797208  93.2144645  55.6634590  30.3471304  93.9769257
  52.5903453  29.3517889  93.8542829  52.2521965  29.2358953  92.9663364
  53.4593221  28.9509054  93.8343836  48.4490269  31.2053365  89.8439720
  47.8855134  31.1143302  89.0756008  48.3342664  30.3853269  90.3242213
  53.0723236  30.5052740  99.8129035  53.0611877  30.1105539  98.9409539
  53.2343876  29.7718813 100.4062806  45.9954701  32.7004557  92.6823941
  46.7875993  32.3595381  92.2670240  46.2351351  32.8099532  93.6026094
  54.0289828  34.8724333  85.1554185  53.3777807  35.4578413  84.7688199
  54.8234190  35.4030528  85.2149223  47.9545455  31.9613470  85.5541320
  48.7276331  31.4142457  85.4154195  48.3070854  32.8257719  85.7655781
  49.7930497  33.2889852  98.7608219  49.5020363  34.1935483  98.6454885
  50.4287482  33.3306380  99.4752288  50.7186704  30.6666701  95.3509579
  51.3150276  30.4422723  94.6366541  50.7761676  29.9251446  95.9535026
  50.2911733  28.1206136  83.1859769  50.5437253  27.5987657  82.4243232
  49.3536292  27.9572281  83.2886453  55.3355015  27.1241914  90.9934513
  56.1218105  26.7061337  90.6424930  55.5993720  28.0288006  91.1616161
  55.5065093  32.5614765  85.6923170  54.8710926  32.6349391  86.4044074
  55.1762499  33.1508363  85.0142249  60.7363442  27.0617148  91.8967491
  61.4688614  26.4916364  92.1305321  59.9802798  26.6738748  92.3373997
  50.0108021  30.0234242  85.3884144  49.8944279  29.3479145  86.0565229
  50.1210281  29.5366616  84.5716297  52.3539562  29.4844389  89.0930834
  51.9897769  28.9575010  89.8043755  53.2106678  29.0942858  88.9197319
  58.2588863  20.7738722  96.3562100  57.9272188  21.6434133  96.1323315
  57.6634476  20.4575006  97.0356130  51.9945049  24.5134289  84.0892182
  52.1619452  25.3814525  84.4562653  51.8042218  24.6761570  83.1653471
  54.7520382  32.9751268  95.7558013  54.4521105  33.8776306  95.6473820
  54.4071442  32.7083451  96.6079165  48.2032864  29.4265064  91.7894717
  47.2783360  29.2941279  91.9972409  48.4517277  30.2059284  92.2864659
  58.1517526  25.4933808  93.4355450  57.2434403  25.4249216  93.1414211
  58.1005122  25.9705753  94.2637275  51.9734270  26.9691946  85.0738849
  51.8533895  27.4148997  85.9124329  51.2786858  27.3177264  84.5152387
  45.5641675  29.0698338  92.6238506  45.6934056  29.3232817  93.5377918
  44.8839126  29.6626046  92.3043161  49.7341162  39.7395588  88.7228980
  49.6565192  40.6903413  88.8017461  49.1302806  39.3941460  89.3803907
  52.2258392  26.9123453 101.3790347  51.4491726  27.4717374 101.3693212
  52.8648955  27.3980236 101.9005217  60.0179173  23.6950246  95.2133324
  59.3753553  23.9882779  94.5673118  59.5134101  23.5803167  96.0186520
  57.6719336  27.4413419  85.9019183  58.5837192  27.6740806  85.7266881
  57.1628983  28.0250464  85.3394262  50.4804764  29.7208907 100.9408314
  51.2219449  30.2593951 100.6643138  49.7741750  30.3475195 101.0979866
  55.9560104  31.8638047  99.5380476  56.3643460  31.4220458  98.7935108
  55.2337365  31.2890675  99.7914669  52.3091174  26.8010654  96.9114033
  53.1552369  27.2250068  97.0548682  52.2489812  26.1444278  97.6052596
  56.2788918  32.4239238  93.2932765  55.6497781  32.5884952  92.5908832
  55.8914581  32.8380847  94.0643729  60.1578150  33.3593676  90.6477128
  59.4729189  33.7392577  90.0974162  60.2422000  33.9689002  91.3809076
  55.4590619  24.4615022  98.5695206  55.2151551  25.2157083  98.0329482
  55.7350550  24.8400370  99.4042453  57.4129082  31.0053635  97.2472472
  57.6245977  31.6485395  96.5706853  57.3658830  30.1715951  96.7794402
  55.0155311  23.6171455  94.1509044  54.1539790  23.9152709  94.4425782
  55.0417746  23.8341854  93.2190077  51.8316880  32.1613646  90.5582850
  52.2955226  32.4401349  89.7687472  51.5673678  31.2597090  90.3755940
  48.7240961  31.7085127  93.4962613  49.2942319  32.1372396  92.8580097
  49.3149073  31.4267712  94.1946799  50.7685766  28.2836798  87.3672415
  51.4709810  28.7357842  87.8346341  50.4366395  27.6420617  87.9952308
  44.5111100  26.5420351  92.6689548  43.7210154  26.7977879  92.1929659
  45.0022348  27.3568689  92.7741589  58.5274910  33.8825590  95.4194829
  59.3492354  33.4805777  95.1377511  58.5237313  33.7793824  96.3710945
  46.4625846  26.9064930  89.6273025  45.6657009  27.0183624  90.1456521
  46.2351438  27.2451582  88.7613916  52.2931513  33.4309633  97.5755540
  52.3575946  33.8930041  98.4113712  51.5842437  32.8006998  97.7037850
  42.7948803  26.7950841  95.1004539  43.0456842  27.6797851  95.3662115
  43.3308352  26.6155443  94.3279631  66.6180903  30.2264339  91.7679801
  65.8644611  29.6571737  91.6123805  66.7528444  30.1927003  92.7150435
  52.0079531  35.0977741  87.4434520  51.8725206  35.9429277  87.8719368
  52.5489344  35.2997019  86.6800454  45.4608928  32.6153179  88.0162445
  45.9733449  33.4096429  88.1668010  46.1131641  31.9179469  87.9496047
  47.2703813  35.7318935  90.0985198  47.4470441  36.6536900  89.9106182
  48.0660647  35.4177354  90.5279578  53.6348007  35.7201307 101.5734862
  53.1911862  34.9337686 101.2555767  54.2965221  35.9080458 100.9078753
  48.3935129  37.2497109  96.0995541  48.9442554  37.1214172  95.3272535
  47.5546605  37.5491998  95.7490433  55.7329245  36.0004107  99.6016263
  55.7147721  36.8212988  99.1096533  56.6549166  35.8758183  99.8266405
  52.1902300  33.5148237 100.4439772  52.7230636  32.7536525 100.2139080
  51.6616381  33.2221889 101.1863926  55.3571995  18.6208303  95.9733413
  55.0136264  19.5109944  95.8972524  55.7250957  18.4309960  95.1102998
  43.4257845  30.9441833  88.7922016  44.2633067  31.3538842  88.5755723
  43.6036113  30.0041275  88.7622209  55.3222277  28.6116914  84.4805849
  54.8068901  29.3821519  84.7194236  55.0499586  27.9382050  85.1038910
  52.9069388  23.4566615  89.5391087  52.0510985  23.0673465  89.3596726
  53.3196340  23.5358575  88.6790872  54.4368535  20.9912958  93.9382647
  53.9333331  20.9543093  93.1250452  54.7299142  21.9005701  93.9979303
  50.6811421  21.0751688  92.9448828  51.5464418  20.8794496  92.5854718
  50.7488930  20.8462039  93.8718185  60.2956551  31.3649269  86.4159022
  59.5185994  31.0260428  85.9714184  60.9748032  31.3701892  85.7413987
  55.1108581  26.4844006  86.3065630  54.8058716  26.7990155  87.1575773
  56.0639023  26.5625426  86.3492963  53.5555012  32.6434229  87.9558584
  53.0276374  31.9086989  87.6431821  53.0542515  33.4208906  87.7098552
  58.5347858  30.8383250  93.0725630  57.8771533  31.5282511  93.1605759
  59.3388258  31.2279682  93.4159616  48.2873740  23.3053896  90.3165195
  48.8617492  23.0829077  89.5838388  48.8744722  23.3742590  91.0693797
  57.3453317  29.1927622  91.1229572  57.8585199  29.8257614  91.6251282
  57.9954541  28.5928818  90.7572932  48.6143327  25.3358357  84.3361081
  47.7780639  25.6733043  84.6570355  48.4748097  25.2007336  83.3988217
  50.5896408  20.1795144  89.0440265  49.9360820  19.8644162  88.4196879
  50.5476882  19.5570885  89.7700088  51.7007613  30.4614440  80.9593557
  50.7934674  30.2303693  81.1584706  52.1978645  29.6652059  81.1467538
  54.6075691  39.1711947  83.8790243  53.9337390  39.4743644  84.4875201
  54.9941513  39.9741027  83.5295700  53.8234148  26.6677078  93.3687912
  52.9056709  26.8892025  93.2109600  54.2394292  26.7423389  92.5099620
  54.6069196  28.0668494  88.4990593  55.3541015  28.5789891  88.1897715
  54.8760785  27.7452546  89.3594986  52.8795846  30.5627034  85.4817547
  51.9707065  30.2786067  85.5790017  52.9090930  30.9826113  84.6220854
  58.1115113  34.1733624  89.2508714  57.6577440  33.3324534  89.3073905
  57.4809080  34.8095022  89.5883495  57.0548033  25.1025610  90.4809382
  56.3170790  24.5902996  90.8119624  57.3074806  24.6625992  89.6692659
  56.5548053  36.0110121  90.1858533  56.8471027  36.5715178  89.4670898
  57.0646673  36.3038682  90.9411692  57.1559660  17.8801862  91.0751151
  57.4618537  17.0199225  90.7877066  57.8812265  18.4719482  90.8750145
  43.4484016  28.2832549  89.4632749  43.2508416  27.6901909  88.7383816
  42.8930680  27.9784759  90.1808688  51.4280740  28.1755655  91.5827342
  51.4829350  27.2229491  91.5069819  50.6171942  28.3315094  92.0668641
  52.5771934  32.1035778  82.8205625  52.1391364  31.3871637  82.3611263
  53.3182375  32.3311893  82.2590717  49.3673100  26.7932715  89.3417721
  48.5540965  27.0926885  89.7482913  49.8632094  26.3988404  90.0592203
  51.5181678  36.7890472  91.2751986  51.4757857  37.0151318  90.3460518
  52.4344377  36.5553846  91.4237787  54.9647312  27.2574539  98.1732615
  55.3196699  27.4846012  99.0327081  55.6119443  27.5892916  97.5509870
  60.6945049  30.3792975  88.8781944  60.5562947  30.5694571  87.9503133
  60.3381267  31.1412358  89.3349995  48.8587175  24.3651070  94.9578956
  49.4986554  24.2239829  94.2601919  48.0264705  24.0785584  94.5817558
  60.7214428  32.4469502  93.8893216  61.1550935  32.3544791  94.7376270
  61.4346009  32.4227003  93.2513231  49.6347479  33.6653501  91.0713948
  50.4288077  33.1703821  90.8696523  48.9239171  33.1371364  90.7081654
  54.4542323  36.0471596  95.4226316  54.5079345  36.6162533  96.1904032
  53.5857104  36.2173481  95.0580353  45.9430242  27.8096582  87.1473701
  45.0127830  27.7481038  87.3643663  46.0387714  27.2872535  86.3510342
  45.8615791  24.3351395  89.7351943  46.1222608  25.2496729  89.6261103
  46.6832963  23.8675838  89.8848556  47.3340716  25.7489152  96.9050767
  48.0063770  25.5406515  96.2563416  46.5070503  25.5511238  96.4656000
  61.5829978  32.4893203  96.4226101  61.7765868  33.3939013  96.6685376
  61.4830596  32.0300622  97.2564686  53.2366288  22.3751093  98.9216428
  52.5894203  23.0741043  98.8280905  54.0067304  22.8087237  99.2892676
  56.6445086  32.6399946 101.9966982  56.4930593  32.4110497 101.0797065
  56.6349766  33.5970547 102.0098327  53.4130423  30.2131858  96.9813248
  54.3422483  30.3643018  96.8082215  52.9921453  30.3015879  96.1261894
  52.2118755  34.2382523  94.7511786  52.0729840  33.8701307  95.6237724
  51.4233351  34.7530162  94.5795743  52.8066907  39.3391619  86.0937322
  52.9818662  38.8679662  86.9082945  52.1199695  39.9657385  86.3218583
  53.7623970  33.6164125  92.1400623  53.4273802  33.5764895  93.0358273
  53.2627915  32.9508841  91.6671034  47.7368214  29.0231755  97.6653205
  47.5988012  28.2911994  98.2664744  48.6473137  28.9340656  97.3837392
  56.6983161  30.9620160  82.4137683  56.0812332  30.2366988  82.3170736
  56.2299650  31.7229520  82.0704757  50.3650514  28.7351715  97.1536884
  51.0750133  28.0944907  97.1123503  50.3219823  28.9864610  98.0763065
  58.3537293  35.6719068 100.0743463  58.2949839  34.9878288  99.4074046
  58.7556811  36.4138058  99.6224089  47.3727992  42.4880982  92.8677182
  47.6124590  43.1199506  93.5456201  46.5297188  42.1369022  93.1542542
  48.4881707  25.1805584  81.5358987  47.6111174  25.0594385  81.1721234
  48.9639460  24.3891662  81.2837876  58.3554700  33.6358652  98.3057443
  57.4681479  33.2984574  98.4283842  58.9253251  32.9041683  98.5426208
  40.0083847  29.9682744  91.6300494  40.6954887  29.6544474  91.0421510
  39.8531976  30.8724108  91.3567746  44.8118570  24.8572940  96.0585518
  44.7276758  24.2498610  95.3235928  43.9901276  25.3481959  96.0595014
  51.8855854  38.2960104  95.2718686  51.8126025  39.1015076  95.7837991
  51.4433247  38.4952070  94.4466708  51.6745633  37.5331874  88.7821508
  50.8913155  38.0753555  88.8759732  52.3738379  38.0505854  89.1815749
  54.9842283  23.3426504  91.4255713  55.4810983  22.5896466  91.1056783
  54.2129265  23.3790821  90.8598923  62.8372041  29.0466869  93.0674005
  62.8261917  29.9291585  92.6967938  61.9689420  28.6938420  92.8728542
  54.3454537  38.1946938  97.4276845  55.0582509  38.8294403  97.3552746
  53.8544566  38.2910804  96.6116847  56.0672064  32.0998191  88.9994137
  55.1328343  32.2199654  88.8298841  56.2448733  31.1970658  88.7354146
  51.5677252  25.4843887  91.1527398  51.1975040  24.9314927  91.8408303
  52.0636345  24.8802020  90.6002398  59.4544615  27.9415510  89.5344171
  59.9205068  28.7743502  89.4604473  59.9052116  27.4760492  90.2389429
  49.3966451  35.9441382  98.2482416  50.0975910  36.5777865  98.4011810
  48.9261566  36.2856113  97.4878055  57.5220847  34.2859332  86.5330323
  57.7980690  34.1715926  87.4424197  56.6525345  33.8876817  86.4942496
  57.4261278  20.3096097  93.5735072  56.5124358  20.5400324  93.7417279
  57.8554380  20.3934541  94.4249104  57.1967737  28.4985989  96.0734966
  56.5439187  28.7461897  95.4187419  57.5748117  27.6850128  95.7397443
  54.1574911  38.5345683  90.1763136  54.3397305  37.7167338  90.6390889
  54.9807897  38.7513375  89.7388026  54.4917076  37.4613868  87.4378185
  55.0204843  36.9506322  86.8248347  54.7545296  37.1456398  88.3023718
  44.9934169  35.4777737  95.1813518  45.5787606  34.7321425  95.3141423
  44.7959007  35.7881694  96.0650182  47.8472824  38.5128984  90.1975961
  47.1783199  38.9975112  89.7140001  47.7085694  38.7598205  91.1119339
  39.5851824  28.0483337  93.9017962  39.6235923  27.5146928  94.6955080
  39.0792116  27.5218543  93.2828939  51.9878093  40.5472728  96.7958619
  52.5396401  40.7104349  97.5607704  52.3284286  41.1377166  96.1238644
  56.8388967  35.3733985 102.6507274  57.3828871  35.9863944 102.1562228
  56.2575812  35.9313564 103.1674287  43.2160401  26.7747439  86.9771893
  43.5113842  25.8658118  86.9238947  42.3148437  26.7535179  86.6552895
  55.1246480  38.4954703  93.7822301  54.9997619  37.6944443  93.2733247
  55.7825571  38.9900897  93.2936271  46.7454648  24.8503436  92.9599442
  46.0241234  25.4639404  92.8206915  47.5347904  25.3861201  92.8816087
  57.1881388  36.2963723  95.4101851  56.2411724  36.1769075  95.3380178
  57.5364161  35.4086221  95.4928113  44.9448243  24.4561537  87.1011218
  44.6160949  23.5758916  86.9186324  45.2987613  24.4009206  87.9887607
  54.1927822  36.0916440  91.6106204  54.0452784  35.1633147  91.7913774
  55.0181315  36.1136530  91.1263279  48.0590066  24.7434507  87.4686696
  48.3986138  25.2720428  86.7465304  48.5062186  25.0814913  88.2445262
  57.7961943  36.9144998  92.6971076  58.7208491  36.7087860  92.5595528
  57.6277247  36.6661400  93.6060418  50.7533507  23.1271557  96.9189764
  50.4130327  22.3279371  97.3210444  50.0472513  23.4273268  96.3466597
  51.4049979  20.2120870  95.3717087  52.2276048  19.7381348  95.2495977
  51.6488042  20.9911354  95.8715773  50.0458213  23.2409128  85.6679989
  50.7666576  23.6190381  85.1643705  49.4223517  23.9598005  85.7714966
  54.1889336  23.9454277  86.6038321  54.4052950  24.8278915  86.3027149
  53.7083403  23.5540491  85.8743963  48.9288557  26.9039991  93.1809065
  48.7833138  27.2180294  94.0733347  48.4513761  27.5224891  92.6279964
  50.7884940  23.8942539  93.2289955  50.7746509  22.9983632  92.8922253
  51.5057368  23.9013202  93.8628241  52.6411071  24.3279879  95.2743082
  52.3828849  25.2496949  95.2727413  52.1096111  23.9310313  95.9643547
  57.5857260  37.4330666  88.0533168  57.7594137  36.8677088  87.3007020
  58.0786151  38.2331561  87.8712658  43.4034219  29.4445335  96.1196727
  42.8587688  30.2205143  96.2517001  44.2813569  29.7916139  95.9615848
  50.1921836  22.7756919  88.4977525  50.3137747  21.8473565  88.6968413
  49.9023878  22.7895605  87.5855841  53.0613026  20.4611829  91.6344245
  53.0834723  20.5251162  90.6796225  53.4781086  19.6216338  91.8284751
  63.4396651  30.1967089  89.6723468  63.8827797  29.4474414  89.2742591
  62.5623161  30.1877225  89.2897200  58.5732432  36.7497430  85.1530066
  59.2683337  37.3704123  85.3717381  58.9155582  35.8992781  85.4282444
  60.4723855  34.1997136  86.6817397  60.9975179  34.5384409  85.9566717
  60.3846208  33.2644151  86.4980532  52.1343904  38.1131209  98.8107274
  52.4431030  37.8680356  99.6829973  52.9319386  38.3177848  98.3226144
  52.1564516  40.2669119  91.0412650  51.7169506  39.7745498  91.7345507
  52.9072633  39.7242087  90.8004725  44.6356855  36.4580660  91.0437278
  45.4614875  36.1584432  90.6635922  44.2850907  35.6888282  91.4927067
  49.6038388  35.8107128  93.1134952  48.9818397  35.1477833  92.8137180
  50.2743255  35.8368260  92.4308600  42.8365460  34.3766986  92.0026212
  41.9997368  33.9489161  91.8210213  42.8089105  34.5699430  92.9397003
  60.1617761  34.8330039 101.9868595  59.3713305  34.8154178 101.4473094
  59.9251116  35.3718333 102.7417631  60.2815636  31.6822506  99.3001323
  60.3313641  31.5172513 100.2416846  60.1729560  30.8149765  98.9099204
  49.1651895  34.3611052  86.5893412  49.3140015  35.0446516  85.9360085
  49.9718339  34.3416142  87.1042868  57.5719399  27.6653434 100.6160630
  58.4729262  27.5259899 100.3244628  57.6467373  27.8307889 101.5558808
  51.9062204  25.0420289  99.4613816  51.0365513  25.3353855  99.1896405
  52.1421684  25.6260734 100.1821080  61.7833833  34.1019447  99.5443345
  61.4918642  34.4649428 100.3806806  61.1705964  33.3886456  99.3656677
  62.9829516  31.6672327  92.0645915  63.8176407  32.1062131  92.2283476
  63.1188644  31.1910980  91.2454161  60.0321021  29.2252062  98.0123403
  60.5075143  29.4179708  97.2042254  59.1086587  29.2811248  97.7666787
  46.9204528  30.3876229  87.5954481  46.6750570  29.4838559  87.7934691
  47.0900443  30.3893380  86.6533959  54.6101238  21.2599906  96.9779237
  55.1283182  21.9960932  96.6525725  54.2556371  21.5663899  97.8125996
  46.1900176  26.1204587  85.0940643  45.4969421  26.1948942  84.4380679
  45.9451927  25.3564930  85.6162160  54.8613832  17.6800188  92.4980133
  55.1415586  17.0123377  93.1240560  55.6464439  17.8729284  91.9854797
  52.6647301  36.8559182  84.0605160  52.0921268  37.4749369  83.6075632
  53.2380094  37.4058544  84.5945082  58.7322690  26.1017822  96.2451709
  59.6840113  26.2015920  96.2663933  58.5626141  25.3096091  96.7549793
  56.7537070  23.1873405  96.4311109  56.1587002  23.4678418  95.7357598
  56.4686767  23.6767306  97.2027851  55.8844560  37.1396332  85.1913742
  56.8175234  37.0741894  85.3946618  55.7967773  37.9752599  84.7328275
  58.5132577  36.4562202  82.1517690  58.4346209  36.1222066  83.0453447
  59.3342244  36.9483970  82.1509162  61.2110768  29.3223942  95.3594008
  61.1787088  28.3839942  95.5453692  61.8211392  29.4007978  94.6259833
  53.0494099  28.1919995  81.4021212  53.9953204  28.0626203  81.4709630
  52.6708344  27.4534657  81.8790640  61.3605257  26.1134985  95.4052291
  60.8444305  25.3293442  95.2182220  62.2445205  25.7853702  95.5698811
  59.0215984  19.8576001  91.3648104  58.8240805  19.5491089  92.2491436
  59.6315689  20.5837640  91.4946034  67.0287318  30.3839949  94.5000045
  67.7590707  30.1225237  95.0607748  66.4194264  29.6468671  94.5402113
  65.1102615  28.5247811  95.0974496  64.3835779  28.3903776  94.4890988
  64.6949902  28.8324640  95.9031214  52.9332792  32.2437741 102.8621869
  53.8535801  32.4216340 103.0561916  52.8982375  31.2993786 102.7101568
  51.2337016  26.1169971  81.3376097  50.3268472  25.8203084  81.4138811
  51.5112997  25.8199789  80.4710384  42.1514957  27.4376334  91.7875144
  41.8317741  26.5841643  91.4949518  41.6048385  27.6524913  92.5433111
  45.9294864  30.1538775  95.5044650  46.1480874  31.0855883  95.5232684
  46.3420638  29.7946750  96.2899454  52.8499082  20.6606861  87.4920339
  52.0399810  20.3153946  87.8675585  53.5383499  20.3514405  88.0807950
  54.7789630  19.7384908  89.1144635  55.3320669  20.1580361  89.7734658
  55.0159717  18.8120656  89.1567591  50.0035801  22.9756906  81.4788077
  50.8654965  23.3011805  81.7383894  50.1886145  22.1888402  80.9661142
  42.0203217  31.0579246  93.7568265  41.3266688  30.6433199  93.2438220
  42.7676208  31.0999782  93.1601684  58.1568437  21.8485433  88.6223300
  57.5767106  22.5070237  88.2401352  57.8904370  21.0262777  88.2110717
  56.6072004  21.2490490  90.8244620  57.1071782  21.3607025  90.0158939
  57.2507612  20.9451543  91.4645428  43.9339959  30.9897500  91.6334280
  43.9110647  31.0885187  90.6816163  44.2440596  31.8362651  91.9551446
  46.5927337  33.0473655  95.7480895  47.5470591  33.0157597  95.6810826
  46.3939861  32.5864279  96.5631121  47.1826719  31.6174771  98.3151692
  48.0019608  32.1118850  98.3386530  47.4563527  30.7006739  98.2869260
  56.9393315  24.0085523  87.6779648  56.0519170  24.2935174  87.4599843
  57.3547304  23.8479287  86.8306925  60.2907852  24.0332044  91.3933987
  61.0668242  24.5228497  91.6658604  59.5655986  24.4590098  91.8505857
  62.7280410  24.7459663  92.4507928  63.3224901  24.5055399  91.7401236
  62.8006994  24.0266794  93.0781464  44.9477566  38.5893274  92.7651093
  44.8132034  37.8293675  92.1989091  44.5309628  39.3134174  92.2979881
  56.0836529  33.7730198  81.7727668  56.7872379  33.9780200  82.3885323
  55.3599178  34.3406960  82.0376751  56.9134339  29.5240059  87.8929938
  56.8569541  29.9808611  87.0537570  57.4662682  28.7630744  87.7152781
  60.7239145  25.3129791  88.7180058  60.4676079  24.9126427  89.5488265
  60.0992013  26.0273585  88.5930197  65.0351483  28.0525864  91.2251349
  64.4751041  28.1219054  91.9982911  64.4294986  27.8766849  90.5050845
  48.1046692  39.4862591  92.9769535  47.9879076  40.4308024  92.8748225
  47.2839138  39.1836153  93.3655334  57.9923226  34.2112727  83.8226128
  58.8268830  33.7793925  83.6403603  57.8307569  34.0394741  84.7503022
  57.6469118  30.7144840  85.1882467  57.5917922  30.5489112  84.2470911
  57.0215174  31.4220873  85.3444657  54.9615026  33.0193752 104.5136030
  55.8306185  33.1934404 104.1522665  54.4821777  33.8388169 104.3911759
  50.9565244  20.2152949  84.7667786  50.9443914  21.1594789  84.9236056
  51.8488666  20.0323095  84.4727247  49.1301206  40.1390853  96.1925464
  50.0328453  40.1714463  96.5091959  48.9038576  39.2091304  96.2071799
  50.8854808  38.8921840  92.8535542  49.9350439  38.8923701  92.7399915
  51.1887294  38.1454574  92.3371577  54.7717363  16.8095726  89.0213722
  54.0049759  16.2554213  89.1670405  55.1828068  16.8817595  89.8827874
  66.6207501  44.7282378  93.9181305  67.2585911  44.6089125  93.2144645
  66.5028344  45.6763222  93.9769257  63.4297208  44.6809806  93.8542829
  63.0915719  44.5650871  92.9663364  64.2986976  44.2800971  93.8343836
  59.2884023  46.5345283  89.8439720  58.7248888  46.4435220  89.0756008
  59.1736418  45.7145187  90.3242213  63.9116991  45.8344658  99.8129035
  63.9005631  45.4397456  98.9409539  64.0737630  45.1010731 100.4062806
  56.8348455  48.0296474  92.6823941  57.6269747  47.6887299  92.2670240
  57.0745105  48.1391449  93.6026094  64.8683582  50.2016250  85.1554185
  64.2171562  50.7870331  84.7688199  65.6627945  50.7322445  85.2149223
  58.7939209  47.2905388  85.5541320  59.5670085  46.7434375  85.4154195
  59.1464608  48.1549637  85.7655781  60.6324252  48.6181770  98.7608219
  60.3414118  49.5227401  98.6454885  61.2681236  48.6598297  99.4752288
  61.5580459  45.9958618  95.3509579  62.1544031  45.7714641  94.6366541
  61.6155430  45.2543364  95.9535026  61.1305487  43.4498054  83.1859769
  61.3831008  42.9279575  82.4243232  60.1930046  43.2864199  83.2886453
  66.1748770  42.4533832  90.9934513  66.9611859  42.0353255  90.6424930
  66.4387474  43.3579924  91.1616161  66.3458847  47.8906682  85.6923170
  65.7104680  47.9641309  86.4044074  66.0156254  48.4800281  85.0142249
  71.5757197  42.3909065  91.8967491  72.3082369  41.8208282  92.1305321
  70.8196553  42.0030666  92.3373997  60.8501776  45.3526160  85.3884144
  60.7338034  44.6771063  86.0565229  60.9604036  44.8658534  84.5716297
  63.1933317  44.8136307  89.0930834  62.8291524  44.2866928  89.8043755
  64.0500433  44.4234776  88.9197319  69.0982617  36.1030639  96.3562100
  68.7665942  36.9726050  96.1323315  68.5028231  35.7866923  97.0356130
  62.8338804  39.8426206  84.0892182  63.0013206  40.7106443  84.4562653
  62.6435973  40.0053488  83.1653471  65.5914137  48.3043185  95.7558013
  65.2914860  49.2068224  95.6473820  65.2465196  48.0375368  96.6079165
  59.0426618  44.7556982  91.7894717  58.1177115  44.6233196  91.9972409
  59.2911032  45.5351201  92.2864659  68.9911281  40.8225725  93.4355450
  68.0828158  40.7541134  93.1414211  68.9398876  41.2997670  94.2637275
  62.8128025  42.2983864  85.0738849  62.6927650  42.7440915  85.9124329
  62.1180613  42.6469182  84.5152387  56.4035429  44.3990256  92.6238506
  56.5327811  44.6524735  93.5377918  55.7232881  44.9917964  92.3043161
  60.5734917  55.0687506  88.7228980  60.4958946  56.0195331  88.8017461
  59.9696560  54.7233378  89.3803907  63.0652146  42.2415371 101.3790347
  62.2885480  42.8009291 101.3693212  63.7042709  42.7272154 101.9005217
  70.8572927  39.0242164  95.2133324  70.2147307  39.3174697  94.5673118
  70.3527856  38.9095084  96.0186520  68.5113091  42.7705337  85.9019183
  69.4230947  43.0032724  85.7266881  68.0022738  43.3542381  85.3394262
  61.3198519  45.0500824 100.9408314  62.0613203  45.5885868 100.6643138
  60.6135504  45.6767113 101.0979866  66.7953858  47.1929965  99.5380476
  67.2037214  46.7512375  98.7935108  66.0731120  46.6182592  99.7914669
  63.1484928  42.1302572  96.9114033  63.9946124  42.5541985  97.0548682
  63.0883566  41.4736196  97.6052596  67.1182673  47.7531156  93.2932765
  66.4891535  47.9176870  92.5908832  66.7308335  48.1672765  94.0643729
  70.9971905  48.6885593  90.6477128  70.3122943  49.0684495  90.0974162
  71.0815754  49.2980920  91.3809076  66.2984374  39.7906940  98.5695206
  66.0545306  40.5449001  98.0329482  66.5744304  40.1692288  99.4042453
  68.2522836  46.3345552  97.2472472  68.4639732  46.9777312  96.5706853
  68.2052585  45.5007869  96.7794402  65.8549065  38.9463373  94.1509044
  64.9933544  39.2444627  94.4425782  65.8811500  39.1633772  93.2190077
  62.6710635  47.4905564  90.5582850  63.1348980  47.7693267  89.7687472
  62.4067433  46.5889008  90.3755940  59.5634716  47.0377045  93.4962613
  60.1336073  47.4664314  92.8580097  60.1542828  46.7559630  94.1946799
  61.6079521  43.6128716  87.3672415  62.3103564  44.0649760  87.8346341
  61.2760149  42.9712535  87.9952308  60.0559882  42.2040473 101.7423624
  59.4258543  42.8856753 101.9759021  59.9495970  42.0923554 100.7976762
  55.3504855  41.8712269  92.6689548  54.5603909  42.1269797  92.1929659
  55.8416102  42.6860606  92.7741589  69.3668664  49.2117508  95.4194829
  70.1886108  48.8097695  95.1377511  69.3631067  49.1085742  96.3710945
  57.3019600  42.2356848  89.6273025  56.5050764  42.3475542  90.1456521
  57.0745192  42.5743500  88.7613916  63.1325268  48.7601551  97.5755540
  63.1969700  49.2221958  98.4113712  62.4236192  48.1298916  97.7037850
  53.6342558  42.1242759  95.1004539  53.8850596  43.0089769  95.3662115
  54.1702106  41.9447361  94.3279631  77.4574657  45.5556256  91.7679801
  76.7038366  44.9863654  91.6123805  77.5922199  45.5218921  92.7150435
  62.8473286  50.4269659  87.4434520  62.7118960  51.2721194  87.8719368
  63.3883098  50.6288936  86.6800454  59.3340625  36.5061238 104.1048875
  58.9407571  35.9527437 104.7796519  60.1506765  36.8171817 104.4955393
  56.3002683  47.9445097  88.0162445  56.8127203  48.7388347  88.1668010
  56.9525396  47.2471387  87.9496047  58.1097568  51.0610853  90.0985198
  58.2864196  51.9828818  89.9106182  58.9054401  50.7469272  90.5279578
  62.2508586  37.9219118 101.6969132  62.9918300  38.5226271 101.6173594
  62.4826509  37.1796755 101.1387174  57.3949924  43.1075485  99.9747361
  57.2803439  42.2060742 100.2754460  56.5394442  43.3539182  99.6232178
  64.4741762  51.0493225 101.5734862  64.0305616  50.2629604 101.2555767
  65.1358975  51.2372376 100.9078753  59.2328883  52.5789027  96.0995541
  59.7836308  52.4506090  95.3272535  58.3940359  52.8783916  95.7490433
  66.5723000  51.3296025  99.6016263  66.5541475  52.1504906  99.1096533
  67.4942920  51.2050100  99.8266405  63.0296054  48.8440155 100.4439772
  63.5624391  48.0828443 100.2139080  62.5010135  48.5513806 101.1863926
  66.1965749  33.9500220  95.9733413  65.8530018  34.8401862  95.8972524
  66.5644712  33.7601878  95.1102998  54.2651600  46.2733751  88.7922016
  55.1026822  46.6830759  88.5755723  54.4429867  45.3333193  88.7622209
  66.1616032  43.9408832  84.4805849  65.6462655  44.7113436  84.7194236
  65.8893340  43.2673968  85.1038910  63.7463143  38.7858532  89.5391087
  62.8904739  38.3965383  89.3596726  64.1590095  38.8650493  88.6790872
  65.2762289  36.3204876  93.9382647  64.7727085  36.2835011  93.1250452
  65.5692896  37.2297618  93.9979303  61.5205175  36.4043605  92.9448828
  62.3858172  36.2086414  92.5854718  61.5882684  36.1753957  93.8718185
  71.1350306  46.6941186  86.4159022  70.3579749  46.3552346  85.9714184
  71.8141787  46.6993809  85.7413987  65.9502335  41.8135924  86.3065630
  65.6452471  42.1282073  87.1575773  66.9032777  41.8917344  86.3492963
  64.3948767  47.9726147  87.9558584  63.8670128  47.2378907  87.6431821
  63.8936270  48.7500823  87.7098552  69.3741613  46.1675167  93.0725630
  68.7165287  46.8574429  93.1605759  70.1782012  46.5571599  93.4159616
  59.1267494  38.6345813  90.3165195  59.7011246  38.4120995  89.5838388
  59.7138477  38.7034508  91.0693797  68.1847072  44.5219540  91.1229572
  68.6978953  45.1549532  91.6251282  68.8348296  43.9220736  90.7572932
  59.4537082  40.6650274  84.3361081  58.6174394  41.0024961  84.6570355
  59.3141851  40.5299254  83.3988217  61.4290162  35.5087062  89.0440265
  60.7754575  35.1936079  88.4196879  61.3870636  34.8862803  89.7700088
  62.5401367  45.7906357  80.9593557  61.6328429  45.5595611  81.1584706
  63.0372399  44.9943977  81.1467538  65.4469446  54.5003864  83.8790243
  64.7731145  54.8035561  84.4875201  65.8335268  55.3032945  83.5295700
  64.6627903  41.9968996  93.3687912  63.7450464  42.2183943  93.2109600
  65.0788046  42.0715306  92.5099620  65.4462950  43.3960411  88.4990593
  66.1934769  43.9081809  88.1897715  65.7154540  43.0744464  89.3594986
  63.7189600  45.8918952  85.4817547  62.8100820  45.6077985  85.5790017
  63.7484684  46.3118031  84.6220854  68.9508868  49.5025542  89.2508714
  68.4971195  48.6616451  89.3073905  68.3202835  50.1386940  89.5883495
  67.8941787  40.4317528  90.4809382  67.1564544  39.9194914  90.8119624
  68.1468561  39.9917909  89.6692659  67.3941807  51.3402038  90.1858533
  67.6864781  51.9007095  89.4670898  67.9040428  51.6330599  90.9411692
  67.9953415  33.2093780  91.0751151  68.3012292  32.3491143  90.7877066
  68.7206020  33.8011400  90.8750145  54.2877771  43.6124466  89.4632749
  54.0902171  43.0193827  88.7383816  53.7324435  43.3076676  90.1808688
  62.2674495  43.5047573  91.5827342  62.3223104  42.5521409  91.5069819
  61.4565697  43.6607012  92.0668641  63.4165688  47.4327696  82.8205625
  62.9785118  46.7163555  82.3611263  64.1576129  47.6603811  82.2590717
  60.2066854  42.1224632  89.3417721  59.3934720  42.4218803  89.7482913
  60.7025849  41.7280321  90.0592203  62.3575432  52.1182389  91.2751986
  62.3151611  52.3443236  90.3460518  63.2738131  51.8845764  91.4237787
  65.8041066  42.5866457  98.1732615  66.1590454  42.8137930  99.0327081
  66.4513197  42.9184834  97.5509870  71.5338803  45.7084893  88.8781944
  71.3956702  45.8986489  87.9503133  71.1775022  46.4704276  89.3349995
  59.6980929  39.6942988  94.9578956  60.3380309  39.5531747  94.2601919
  58.8658460  39.4077501  94.5817558  71.5608183  47.7761420  93.8893216
  71.9944689  47.6836709  94.7376270  72.2739763  47.7518920  93.2513231
  60.4741233  48.9945418  91.0713948  61.2681832  48.4995739  90.8696523
  59.7632925  48.4663282  90.7081654  65.2936078  51.3763514  95.4226316
  65.3473100  51.9454450  96.1904032  64.4250859  51.5465399  95.0580353
  56.7823997  43.1388500  87.1473701  55.8521585  43.0772956  87.3643663
  56.8781469  42.6164453  86.3510342  56.7009546  39.6643313  89.7351943
  56.9616363  40.5788646  89.6261103  57.5226718  39.1967756  89.8848556
  58.1734471  41.0781070  96.9050767  58.8457524  40.8698432  96.2563416
  57.3464257  40.8803156  96.4656000  72.4223732  47.8185120  96.4226101
  72.6159622  48.7230931  96.6685376  72.3224350  47.3592540  97.2564686
  64.0760043  37.7043011  98.9216428  63.4287958  38.4032961  98.8280905
  64.8461058  38.1379155  99.2892676  67.4838841  47.9691863 101.9966982
  67.3324347  47.7402415 101.0797065  67.4743520  48.9262465 102.0098327
  64.2524177  45.5423776  96.9813248  65.1816237  45.6934936  96.8082215
  63.8315207  45.6307797  96.1261894  63.0512509  49.5674440  94.7511786
  62.9123595  49.1993225  95.6237724  62.2627105  50.0822080  94.5795743
  63.6460661  54.6683537  86.0937322  63.8212417  54.1971580  86.9082945
  62.9593449  55.2949303  86.3218583  64.6017724  48.9456043  92.1400623
  64.2667557  48.9056813  93.0358273  64.1021670  48.2800759  91.6671034
  58.5761968  44.3523673  97.6653205  58.4381766  43.6203912  98.2664744
  59.4866892  44.2632573  97.3837392  67.5376916  46.2912077  82.4137683
  66.9206087  45.5658906  82.3170736  67.0693404  47.0521438  82.0704757
  61.2044269  44.0643632  97.1536884  61.9143887  43.4236825  97.1123503
  61.1613577  44.3156527  98.0763065  69.1931048  51.0010986 100.0743463
  69.1343594  50.3170206  99.4074046  69.5950566  51.7429976  99.6224089
  59.9173203  41.0508850  98.9732524  59.3810560  40.5999589  99.6254120
  59.3289911  41.1854759  98.2302988  58.2121746  57.8172900  92.8677182
  58.4518345  58.4491424  93.5456201  57.3690943  57.4660940  93.1542542
  59.3275462  40.5097502  81.5358987  58.4504928  40.3886303  81.1721234
  59.8033215  39.7183580  81.2837876  69.1948455  48.9650570  98.3057443
  68.3075234  48.6276492  98.4283842  69.7647006  48.2333601  98.5426208
  50.8477602  45.2974661  91.6300494  51.5348642  44.9836391  91.0421510
  50.6925731  46.2016026  91.3567746  55.6512324  40.1864858  96.0585518
  55.5670513  39.5790528  95.3235928  54.8295030  40.6773876  96.0595014
  62.7249608  53.6252022  95.2718686  62.6519780  54.4306994  95.7837991
  62.2827001  53.8243988  94.4466708  62.5139388  52.8623792  88.7821508
  61.7306910  53.4045472  88.8759732  63.2132133  53.3797772  89.1815749
  65.8236038  38.6718422  91.4255713  66.3204737  37.9188384  91.1056783
  65.0523019  38.7082738  90.8598923  73.6765795  44.3758787  93.0674005
  73.6655672  45.2583503  92.6967938  72.8083175  44.0230338  92.8728542
  65.1848292  53.5238856  97.4276845  65.8976264  54.1586321  97.3552746
  64.6938320  53.6202722  96.6116847  66.9065819  47.4290109  88.9994137
  65.9722097  47.5491571  88.8298841  67.0842487  46.5262576  88.7354146
  62.4071007  40.8135805  91.1527398  62.0368794  40.2606845  91.8408303
  62.9030099  40.2093938  90.6002398  70.2938370  43.2707428  89.5344171
  70.7598822  44.1035420  89.4604473  70.7445870  42.8052410  90.2389429
  60.2360205  51.2733300  98.2482416  60.9369665  51.9069783  98.4011810
  59.7655320  51.6148031  97.4878055  68.3614601  49.6151249  86.5330323
  68.6374445  49.5007844  87.4424197  67.4919100  49.2168734  86.4942496
  68.2655033  35.6388015  93.5735072  67.3518113  35.8692242  93.7417279
  68.6948134  35.7226459  94.4249104  68.0361491  43.8277907  96.0734966
  67.3832941  44.0753814  95.4187419  68.4141871  43.0142045  95.7397443
  64.9968665  53.8637600  90.1763136  65.1791060  53.0459256  90.6390889
  65.8201651  54.0805292  89.7388026  65.3310831  52.7905785  87.4378185
  65.8598597  52.2798240  86.8248347  65.5939050  52.4748316  88.3023718
  64.0849064  44.5697718 102.5601003  63.4089701  44.4691847 103.2303378
  64.9076698  44.4136932 103.0237000  55.8327923  50.8069655  95.1813518
  56.4181360  50.0613343  95.3141423  55.6352762  51.1173611  96.0650182
  58.6866579  53.8420902  90.1975961  58.0176954  54.3267030  89.7140001
  58.5479448  54.0890122  91.1119339  50.4245578  43.3775255  93.9017962
  50.4629678  42.8438846  94.6955080  49.9185871  42.8510460  93.2828939
  62.8271847  55.8764646  96.7958619  63.3790155  56.0396267  97.5607704
  63.1678041  56.4669083  96.1238644  57.8036340  38.2239795  97.3980504
  57.8677667  39.0854626  96.9857902  57.7403461  37.6113797  96.6652862
  57.2788613  40.2962928 101.0453538  57.9060652  39.9140005 101.6591062
  56.4216532  40.0777130 101.4109231  67.6782721  50.7025903 102.6507274
  68.2222625  51.3155861 102.1562228  67.0969566  51.2605481 103.1674287
  54.0554156  42.1039357  86.9771893  54.3507597  41.1950035  86.9238947
  53.1542191  42.0827096  86.6552895  65.9640234  53.8246621  93.7822301
  65.8391374  53.0236361  93.2733247  66.6219326  54.3192814  93.2936271
  57.5848403  40.1795354  92.9599442  56.8634988  40.7931321  92.8206915
  58.3741658  40.7153118  92.8816087  68.0275143  51.6255641  95.4101851
  67.0805478  51.5060992  95.3380178  68.3757916  50.7378139  95.4928113
  60.3874716  37.5149780  99.2340093  60.9109118  37.7612077  99.9966403
  60.1687049  38.3469815  98.8143231  55.7841997  39.7853455  87.1011218
  55.4554703  38.9050834  86.9186324  56.1381368  39.7301123  87.9887607
  65.0321576  51.4208357  91.6106204  64.8846539  50.4925065  91.7913774
  65.8575070  51.4428448  91.1263279  58.8983820  40.0726424  87.4686696
  59.2379893  40.6012346  86.7465304  59.3455941  40.4106831  88.2445262
  68.6355698  52.2436916  92.6971076  69.5602245  52.0379777  92.5595528
  68.4671001  51.9953317  93.6060418  61.5927261  38.4563475  96.9189764
  61.2524082  37.6571288  97.3210444  60.8866267  38.7565186  96.3466597
  62.2443733  35.5412788  95.3717087  63.0669802  35.0673266  95.2495977
  62.4881797  36.3203271  95.8715773  60.8851968  38.5701046  85.6679989
  61.6060330  38.9482299  85.1643705  60.2617272  39.2889923  85.7714966
  65.0283090  39.2746195  86.6038321  65.2446705  40.1570833  86.3027149
  64.5477158  38.8832408  85.8743963  59.7682312  42.2331908  93.1809065
  59.6226892  42.5472211  94.0733347  59.2907515  42.8516809  92.6279964
  61.6278695  39.2234456  93.2289955  61.6140263  38.3275550  92.8922253
  62.3451123  39.2305120  93.8628241  63.4804825  39.6571796  95.2743082
  63.2222603  40.5788867  95.2727413  62.9489866  39.2602231  95.9643547
  68.4251014  52.7622584  88.0533168  68.5987892  52.1969006  87.3007020
  68.9179905  53.5623478  87.8712658  54.2427974  44.7737253  96.1196727
  53.6981442  45.5497061  96.2517001  55.1207324  45.1208057  95.9615848
  61.0315591  38.1048836  88.4977525  61.1531502  37.1765483  88.6968413
  60.7417633  38.1187522  87.5855841  63.9006781  35.7903747  91.6344245
  63.9228478  35.8543080  90.6796225  64.3174840  34.9508256  91.8284751
  74.2790405  45.5259006  89.6723468  74.7221551  44.7766332  89.2742591
  73.4016916  45.5169143  89.2897200  69.4126187  52.0789348  85.1530066
  70.1077091  52.6996041  85.3717381  69.7549337  51.2284699  85.4282444
  55.0293996  43.9007149  99.0126884  54.2875732  44.0489784  99.5991514
  54.7086740  44.1615414  98.1493633  71.3117610  49.5289053  86.6817397
  71.8368934  49.8676326  85.9566717  71.2239962  48.5936069  86.4980532
  62.9737658  53.4423127  98.8107274  63.2824785  53.1972274  99.6829973
  63.7713140  53.6469766  98.3226144  62.9958270  55.5961037  91.0412650
  62.5563261  55.1037415  91.7345507  63.7466387  55.0534004  90.8004725
  55.4750609  51.7872578  91.0437278  56.3008629  51.4876349  90.6635922
  55.1244661  51.0180200  91.4927067  60.4432143  51.1399046  93.1134952
  59.8212152  50.4769751  92.8137180  61.1137010  51.1660178  92.4308600
  53.6759215  49.7058904  92.0026212  52.8391123  49.2781078  91.8210213
  53.6482860  49.8991347  92.9397003  60.5156670  39.6180834 102.7067458
  60.5644826  40.4942957 102.3245227  61.0579184  39.0758227 102.1339101
  71.0011516  50.1621957 101.9868595  70.2107060  50.1446096 101.4473094
  70.7644870  50.7010251 102.7417631  71.1209391  47.0114423  99.3001323
  71.1707396  46.8464431 100.2416846  71.0123314  46.1441683  98.9099204
  60.0045650  49.6902969  86.5893412  60.1533770  50.3738434  85.9360085
  60.8112093  49.6708059  87.1042868  68.4113153  42.9945352 100.6160630
  69.3123016  42.8551816 100.3244628  68.4861128  43.1599806 101.5558808
  62.7455959  40.3712206  99.4613816  61.8759268  40.6645772  99.1896405
  62.9815439  40.9552651 100.1821080  72.6227588  49.4311365  99.5443345
  72.3312396  49.7941346 100.3806806  72.0099719  48.7178373  99.3656677
  73.8223270  46.9964245  92.0645915  74.6570161  47.4354049  92.2283476
  73.9582399  46.5202898  91.2454161  70.8714776  44.5543980  98.0123403
  71.3468898  44.7471626  97.2042254  69.9480341  44.6103165  97.7666787
  57.7598283  45.7168147  87.5954481  57.5144324  44.8130477  87.7934691
  57.9294197  45.7185297  86.6533959  65.4494992  36.5891823  96.9779237
  65.9676936  37.3252850  96.6525725  65.0950125  36.8955816  97.8125996
  57.0293930  41.4496504  85.0940643  56.3363175  41.5240859  84.4380679
  56.7845682  40.6856848  85.6162160  65.7007587  33.0092106  92.4980133
  65.9809340  32.3415295  93.1240560  66.4858194  33.2021201  91.9854797
  63.5041055  52.1851100  84.0605160  62.9315022  52.8041287  83.6075632
  64.0773849  52.7350461  84.5945082  69.5716445  41.4309740  96.2451709
  70.5233868  41.5307837  96.2663933  69.4019895  40.6388008  96.7549793
  67.5930824  38.5165323  96.4311109  66.9980757  38.7970336  95.7357598
  67.3080521  39.0059224  97.2027851  66.7238315  52.4688250  85.1913742
  67.6568988  52.4033811  85.3946618  66.6361528  53.3044517  84.7328275
  69.3526332  51.7854120  82.1517690  69.2739963  51.4513984  83.0453447
  70.1735998  52.2775888  82.1509162  72.0504523  44.6515859  95.3594008
  72.0180843  43.7131860  95.5453692  72.6605146  44.7299896  94.6259833
  63.8887854  43.5211912  81.4021212  64.8346958  43.3918120  81.4709630
  63.5102099  42.7826574  81.8790640  72.1999011  41.4426903  95.4052291
  71.6838060  40.6585359  95.2182220  73.0838960  41.1145619  95.5698811
  69.8609738  35.1867918  91.3648104  69.6634559  34.8783007  92.2491436
  70.4709444  35.9129557  91.4946034  77.8681073  45.7131866  94.5000045
  78.5984461  45.4517154  95.0607748  77.2588018  44.9760588  94.5402113
  75.9496370  43.8539729  95.0974496  75.2229533  43.7195694  94.4890988
  75.5343657  44.1616557  95.9031214  63.7726546  47.5729658 102.8621869
  64.6929556  47.7508258 103.0561916  63.7376129  46.6285704 102.7101568
  62.0730771  41.4461889  81.3376097  61.1662226  41.1495001  81.4138811
  62.3506752  41.1491707  80.4710384  52.9908711  42.7668252  91.7875144
  52.6711495  41.9133560  91.4949518  52.4442139  42.9816830  92.5433111
  56.7688619  45.4830693  95.5044650  56.9874628  46.4147801  95.5232684
  57.1814392  45.1238668  96.2899454  63.6892836  35.9898778  87.4920339
  62.8793565  35.6445863  87.8675585  64.3777253  35.6806322  88.0807950
  65.6183385  35.0676825  89.1144635  66.1714423  35.4872279  89.7734658
  65.8553471  34.1412573  89.1567591  61.6416484  41.0563899 104.8947399
  61.5413211  42.0058256 104.8259490  61.4238026  40.7282138 104.0223469
  60.8429555  38.3048824  81.4788077  61.7048719  38.6303722  81.7383894
  61.0279900  37.5180320  80.9661142  52.8596971  46.3871164  93.7568265
  52.1660443  45.9725116  93.2438220  53.6069962  46.4291700  93.1601684
  68.9962192  37.1777350  88.6223300  68.4160861  37.8362154  88.2401352
  68.7298125  36.3554695  88.2110717  67.4465758  36.5782408  90.8244620
  67.9465537  36.6898943  90.0158939  68.0901366  36.2743461  91.4645428
  61.5047754  44.4861038 103.7112461  61.0214836  45.2861398 103.9176350
  61.5908693  44.4968983 102.7579905  54.7733714  46.3189417  91.6334280
  54.7504402  46.4177105  90.6816163  55.0834350  47.1654568  91.9551446
  57.4321092  48.3765572  95.7480895  58.3864345  48.3449515  95.6810826
  57.2333615  47.9156196  96.5631121  58.0220474  46.9466689  98.3151692
  58.8413363  47.4410767  98.3386530  58.2957281  46.0298657  98.2869260
  67.7787070  39.3377441  87.6779648  66.8912925  39.6227091  87.4599843
  68.1941059  39.1771204  86.8306925  71.1301606  39.3623962  91.3933987
  71.9061996  39.8520414  91.6658604  70.4049740  39.7882016  91.8505857
  73.5674165  40.0751581  92.4507928  74.1618655  39.8347317  91.7401236
  73.6400748  39.3558712  93.0781464  55.7871320  53.9185192  92.7651093
  55.6525788  53.1585593  92.1989091  55.3703383  54.6426092  92.2979881
  66.9230283  49.1022115  81.7727668  67.6266133  49.3072118  82.3885323
  66.1992932  49.6698877  82.0376751  67.7528094  44.8531977  87.8929938
  67.6963295  45.3100528  87.0537570  68.3056436  44.0922661  87.7152781
  71.5632900  40.6421709  88.7180058  71.3069834  40.2418344  89.5488265
  70.9385768  41.3565503  88.5930197  75.8745237  43.3817782  91.2251349
  75.3144795  43.4510971  91.9982911  75.2688741  43.2058766  90.5050845
  58.9440446  54.8154509  92.9769535  58.8272830  55.7599941  92.8748225
  58.1232892  54.5128071  93.3655334  68.8316981  49.5404645  83.8226128
  69.6662585  49.1085843  83.6403603  68.6701324  49.3686658  84.7503022
  68.4862873  46.0436758  85.1882467  68.4311677  45.8781029  84.2470911
  67.8608928  46.7512791  85.3444657  53.2755388  41.2804822  99.0143889
  53.9214251  40.7703776  99.5031115  53.0672539  42.0173504  99.5887315
  65.8008780  48.3485670 104.5136030  66.6699940  48.5226322 104.1522665
  65.3215532  49.1680087 104.3911759  61.7958998  35.5444867  84.7667786
  61.7837668  36.4886707  84.9236056  62.6882420  35.3615012  84.4727247
  59.9694960  55.4682771  96.1925464  60.8722207  55.5006381  96.5091959
  59.7432330  54.5383222  96.2071799  61.7248562  54.2213757  92.8535542
  60.7744193  54.2215619  92.7399915  62.0281048  53.4746492  92.3371577
  65.6111118  32.1387644  89.0213722  64.8443514  31.5846130  89.1670405
  66.0221823  32.2109512  89.8827874  57.6152879  38.4272439 103.1118904
  58.4784340  38.0709244 103.3222228  57.0418290  38.0886334 103.7994308
  77.4601256  60.0574296  93.9181305  78.0979666  59.9381043  93.2144645
  77.3422099  61.0055140  93.9769257  74.2690962  60.0101724  93.8542829
  73.9309474  59.8942789  92.9663364  75.1380730  59.6092889  93.8343836
  70.1277778  61.8637200  89.8439720  69.5642643  61.7727137  89.0756008
  70.0130173  61.0437105  90.3242213  74.7510745  61.1636576  99.8129035
  74.7399386  60.7689374  98.9409539  74.9131385  60.4302648 100.4062806
  67.6742210  63.3588392  92.6823941  68.4663502  63.0179217  92.2670240
  67.9138860  63.4683367  93.6026094  75.7077337  65.5308168  85.1554185
  75.0565316  66.1162248  84.7688199  76.5021699  66.0614363  85.2149223
  69.6332964  62.6197305  85.5541320  70.4063840  62.0726292  85.4154195
  69.9858363  63.4841554  85.7655781  71.4718006  63.9473687  98.7608219
  71.1807872  64.8519318  98.6454885  72.1074991  63.9890215  99.4752288
  72.3974213  61.3250536  95.3509579  72.9937785  61.1006558  94.6366541
  72.4549185  60.5835281  95.9535026  71.9699241  58.7789971  83.1859769
  72.2224762  58.2571493  82.4243232  71.0323801  58.6156117  83.2886453
  77.0142524  57.7825750  90.9934513  77.8005614  57.3645173  90.6424930
  77.2781229  58.6871842  91.1616161  77.1852602  63.2198600  85.6923170
  76.5498435  63.2933226  86.4044074  76.8550008  63.8092199  85.0142249
  82.4150951  57.7200983  91.8967491  83.1476123  57.1500200  92.1305321
  81.6590307  57.3322583  92.3373997  71.6895530  60.6818077  85.3884144
  71.5731788  60.0062981  86.0565229  71.7997790  60.1950451  84.5716297
  74.0327071  60.1428224  89.0930834  73.6685278  59.6158845  89.8043755
  74.8894187  59.7526693  88.9197319  79.9376372  51.4322557  96.3562100
  79.6059697  52.3017968  96.1323315  79.3421985  51.1158841  97.0356130
  73.6732558  55.1718124  84.0892182  73.8406960  56.0398360  84.4562653
  73.4829727  55.3345406  83.1653471  76.4307891  63.6335103  95.7558013
  76.1308614  64.5360142  95.6473820  76.0858951  63.3667286  96.6079165
  69.8820373  60.0848900  91.7894717  68.9570869  59.9525114  91.9972409
  70.1304786  60.8643119  92.2864659  79.8305035  56.1517643  93.4355450
  78.9221912  56.0833052  93.1414211  79.7792631  56.6289588  94.2637275
  73.6521779  57.6275782  85.0738849  73.5321404  58.0732832  85.9124329
  72.9574367  57.9761099  84.5152387  67.2429184  59.7282173  92.6238506
  67.3721565  59.9816652  93.5377918  66.5626635  60.3209881  92.3043161
  71.4128671  70.3979423  88.7228980  71.3352701  71.3487248  88.8017461
  70.8090315  70.0525296  89.3803907  73.9045901  57.5707289 101.3790347
  73.1279235  58.1301209 101.3693212  74.5436464  58.0564072 101.9005217
  81.6966682  54.3534082  95.2133324  81.0541062  54.6466615  94.5673118
  81.1921610  54.2387002  96.0186520  79.3506845  58.0997255  85.9019183
  80.2624701  58.3324641  85.7266881  78.8416492  58.6834299  85.3394262
  72.1592273  60.3792742 100.9408314  72.9006958  60.9177786 100.6643138
  71.4529259  61.0059031 101.0979866  77.6347613  62.5221883  99.5380476
  78.0430969  62.0804293  98.7935108  76.9124874  61.9474510  99.7914669
  73.9878683  57.4594489  96.9114033  74.8339878  57.8833903  97.0548682
  73.9277321  56.8028114  97.6052596  77.9576427  63.0823073  93.2932765
  77.3285290  63.2468787  92.5908832  77.5702090  63.4964683  94.0643729
  81.8365659  64.0177511  90.6477128  81.1516698  64.3976412  90.0974162
  81.9209509  64.6272838  91.3809076  77.1378128  55.1198858  98.5695206
  76.8939060  55.8740918  98.0329482  77.4138059  55.4984205  99.4042453
  79.0916591  61.6637470  97.2472472  79.3033486  62.3069230  96.5706853
  79.0446339  60.8299787  96.7794402  76.6942820  54.2755291  94.1509044
  75.8327299  54.5736544  94.4425782  76.7205255  54.4925690  93.2190077
  73.5104389  62.8197481  90.5582850  73.9742735  63.0985184  89.7687472
  73.2461187  61.9180926  90.3755940  70.4028470  62.3668963  93.4962613
  70.9729827  62.7956231  92.8580097  70.9936582  62.0851548  94.1946799
  72.4473275  58.9420634  87.3672415  73.1497319  59.3941677  87.8346341
  72.1153904  58.3004452  87.9952308  70.8953637  57.5332390 101.7423624
  70.2652298  58.2148671 101.9759021  70.7889725  57.4215472 100.7976762
  66.1898609  57.2004186  92.6689548  65.3997663  57.4561715  92.1929659
  66.6809857  58.0152524  92.7741589  80.2062419  64.5409425  95.4194829
  81.0279863  64.1389613  95.1377511  80.2024822  64.4377660  96.3710945
  68.1413355  57.5648766  89.6273025  67.3444518  57.6767460  90.1456521
  67.9138947  57.9035418  88.7613916  73.9719022  64.0893469  97.5755540
  74.0363455  64.5513876  98.4113712  73.2629946  63.4590834  97.7037850
  64.4736312  57.4534677  95.1004539  64.7244351  58.3381687  95.3662115
  65.0095861  57.2739278  94.3279631  88.2968412  60.8848174  91.7679801
  87.5432120  60.3155572  91.6123805  88.4315953  60.8510838  92.7150435
  73.6867040  65.7561576  87.4434520  73.5512715  66.6013112  87.8719368
  74.2276853  65.9580854  86.6800454  70.1734380  51.8353156 104.1048875
  69.7801325  51.2819355 104.7796519  70.9900520  52.1463735 104.4955393
  67.1396437  63.2737014  88.0162445  67.6520958  64.0680265  88.1668010
  67.7919150  62.5763305  87.9496047  68.9491322  66.3902771  90.0985198
  69.1257950  67.3120735  89.9106182  69.7448156  66.0761190  90.5279578
  73.0902341  53.2511035 101.6969132  73.8312054  53.8518188 101.6173594
  73.3220263  52.5088673 101.1387174  68.2343679  58.4367402  99.9747361
  68.1197194  57.5352660 100.2754460  67.3788196  58.6831099  99.6232178
  70.0722638  67.9080944  96.0995541  70.6230063  67.7798008  95.3272535
  69.2334113  68.2075833  95.7490433  73.8689809  64.1732072 100.4439772
  74.4018145  63.4120360 100.2139080  73.3403890  63.8805724 101.1863926
  77.0359504  49.2792138  95.9733413  76.6923773  50.1693780  95.8972524
  77.4038466  49.0893796  95.1102998  65.1045354  61.6025669  88.7922016
  65.9420576  62.0122677  88.5755723  65.2823622  60.6625111  88.7622209
  77.0009786  59.2700749  84.4805849  76.4856410  60.0405354  84.7194236
  76.7287095  58.5965885  85.1038910  74.5856897  54.1150450  89.5391087
  73.7298494  53.7257300  89.3596726  74.9983849  54.1942411  88.6790872
  76.1156044  51.6496793  93.9382647  75.6120840  51.6126928  93.1250452
  76.4086651  52.5589536  93.9979303  72.3598930  51.7335523  92.9448828
  73.2251927  51.5378332  92.5854718  72.4276439  51.5045875  93.8718185
  81.9744060  62.0233104  86.4159022  81.1973503  61.6844263  85.9714184
  82.6535541  62.0285727  85.7413987  76.7896089  57.1427841  86.3065630
  76.4846225  57.4573991  87.1575773  77.7426532  57.2209261  86.3492963
  75.2342521  63.3018065  87.9558584  74.7063883  62.5670824  87.6431821
  74.7330024  64.0792741  87.7098552  80.2135367  61.4967085  93.0725630
  79.5559042  62.1866347  93.1605759  81.0175767  61.8863517  93.4159616
  69.9661249  53.9637731  90.3165195  70.5405001  53.7412912  89.5838388
  70.5532231  54.0326425  91.0693797  79.0240826  59.8511458  91.1229572
  79.5372708  60.4841450  91.6251282  79.6742050  59.2512653  90.7572932
  70.2930836  55.9942192  84.3361081  69.4568148  56.3316879  84.6570355
  70.1535606  55.8591172  83.3988217  72.2683917  50.8378980  89.0440265
  71.6148329  50.5227997  88.4196879  72.2264391  50.2154720  89.7700088
  73.3795122  61.1198275  80.9593557  72.4722183  60.8887528  81.1584706
  73.8766153  60.3235894  81.1467538  76.2863200  69.8295782  83.8790243
  75.6124899  70.1327479  84.4875201  76.6729022  70.6324862  83.5295700
  75.5021657  57.3260913  93.3687912  74.5844218  57.5475860  93.2109600
  75.9181801  57.4007224  92.5099620  76.2856705  58.7252329  88.4990593
  77.0328524  59.2373726  88.1897715  76.5548294  58.4036382  89.3594986
  74.5583355  61.2210870  85.4817547  73.6494574  60.9369903  85.5790017
  74.5878439  61.6409948  84.6220854  79.7902622  64.8317459  89.2508714
  79.3364949  63.9908369  89.3073905  79.1596589  65.4678858  89.5883495
  78.7335542  55.7609445  90.4809382  77.9958299  55.2486832  90.8119624
  78.9862315  55.3209827  89.6692659  78.2335562  66.6693956  90.1858533
  78.5258536  67.2299013  89.4670898  78.7434182  66.9622517  90.9411692
  78.8347169  48.5385697  91.0751151  79.1406046  47.6783061  90.7877066
  79.5599774  49.1303318  90.8750145  65.1271525  58.9416384  89.4632749
  64.9295925  58.3485745  88.7383816  64.5718189  58.6368594  90.1808688
  73.1068249  58.8339490  91.5827342  73.1616859  57.8813327  91.5069819
  72.2959451  58.9898929  92.0668641  74.2559443  62.7619613  82.8205625
  73.8178873  62.0455472  82.3611263  74.9969884  62.9895728  82.2590717
  71.0460609  57.4516550  89.3417721  70.2328474  57.7510721  89.7482913
  71.5419603  57.0572239  90.0592203  73.1969187  67.4474307  91.2751986
  73.1545366  67.6735153  90.3460518  74.1131886  67.2137682  91.4237787
  76.6434821  57.9158375  98.1732615  76.9984208  58.1429848  99.0327081
  77.2906952  58.2476751  97.5509870  82.3732558  61.0376810  88.8781944
  82.2350456  61.2278406  87.9503133  82.0168776  61.7996193  89.3349995
  70.5374684  55.0234906  94.9578956  71.1774063  54.8823665  94.2601919
  69.7052214  54.7369419  94.5817558  82.4001937  63.1053338  93.8893216
  82.8338444  63.0128627  94.7376270  83.1133518  63.0810838  93.2513231
  71.3134988  64.3237336  91.0713948  72.1075586  63.8287656  90.8696523
  70.6026680  63.7955199  90.7081654  76.1329832  66.7055432  95.4226316
  76.1866854  67.2746368  96.1904032  75.2644613  66.8757317  95.0580353
  67.6217751  58.4680418  87.1473701  66.6915339  58.4064873  87.3643663
  67.7175223  57.9456371  86.3510342  67.5403300  54.9935231  89.7351943
  67.8010117  55.9080564  89.6261103  68.3620472  54.5259673  89.8848556
  69.0128225  56.4072988  96.9050767  69.6851279  56.1990350  96.2563416
  68.1858012  56.2095074  96.4656000  83.2617487  63.1477038  96.4226101
  83.4553377  64.0522849  96.6685376  83.1618105  62.6884457  97.2564686
  74.9153797  53.0334929  98.9216428  74.2681712  53.7324878  98.8280905
  75.6854813  53.4671073  99.2892676  75.0917932  60.8715694  96.9813248
  76.0209992  61.0226853  96.8082215  74.6708962  60.9599714  96.1261894
  73.8906264  64.8966358  94.7511786  73.7517349  64.5285142  95.6237724
  73.1020860  65.4113997  94.5795743  74.4854416  69.9975455  86.0937322
  74.6606171  69.5263498  86.9082945  73.7987204  70.6241221  86.3218583
  75.4411479  64.2747961  92.1400623  75.1061311  64.2348731  93.0358273
  74.9415424  63.6092677  91.6671034  69.4155723  59.6815591  97.6653205
  69.2775521  58.9495830  98.2664744  70.3260646  59.5924491  97.3837392
  78.3770670  61.6203995  82.4137683  77.7599841  60.8950823  82.3170736
  77.9087159  62.3813355  82.0704757  72.0438023  59.3935550  97.1536884
  72.7537642  58.7528742  97.1123503  72.0007332  59.6448445  98.0763065
  70.7566957  56.3800768  98.9732524  70.2204314  55.9291506  99.6254120
  70.1683666  56.5146677  98.2302988  69.0515501  73.1464817  92.8677182
  69.2912099  73.7783341  93.5456201  68.2084697  72.7952857  93.1542542
  70.1669216  55.8389419  81.5358987  69.2898683  55.7178220  81.1721234
  70.6426969  55.0475498  81.2837876  80.0342209  64.2942487  98.3057443
  79.1468988  63.9568409  98.4283842  80.6040760  63.5625519  98.5426208
  61.6871356  60.6266579  91.6300494  62.3742396  60.3128309  91.0421510
  61.5319485  61.5307944  91.3567746  66.4906079  55.5156776  96.0585518
  66.4064267  54.9082445  95.3235928  65.6688785  56.0065794  96.0595014
  73.5643363  68.9543940  95.2718686  73.4913534  69.7598911  95.7837991
  73.1220756  69.1535906  94.4466708  73.3533142  68.1915710  88.7821508
  72.5700664  68.7337390  88.8759732  74.0525887  68.7089689  89.1815749
  76.6629792  54.0010339  91.4255713  77.1598492  53.2480302  91.1056783
  75.8916774  54.0374656  90.8598923  84.5159550  59.7050705  93.0674005
  84.5049426  60.5875420  92.6967938  83.6476929  59.3522256  92.8728542
  77.7459573  62.7582026  88.9994137  76.8115852  62.8783489  88.8298841
  77.9236242  61.8554493  88.7354146  73.2464761  56.1427722  91.1527398
  72.8762549  55.5898763  91.8408303  73.7423854  55.5385856  90.6002398
  81.1332124  58.5999346  89.5344171  81.5992577  59.4327337  89.4604473
  81.5839625  58.1344327  90.2389429  71.0753960  66.6025217  98.2482416
  71.7763419  67.2361700  98.4011810  70.6049075  66.9439949  97.4878055
  79.2008356  64.9443167  86.5330323  79.4768199  64.8299762  87.4424197
  78.3312854  64.5460652  86.4942496  79.1048787  50.9679933  93.5735072
  78.1911867  51.1984160  93.7417279  79.5341889  51.0518377  94.4249104
  78.8755246  59.1569825  96.0734966  78.2226696  59.4045732  95.4187419
  79.2535626  58.3433963  95.7397443  75.8362420  69.1929518  90.1763136
  76.0184814  68.3751174  90.6390889  76.6595406  69.4097210  89.7388026
  76.1704585  68.1197703  87.4378185  76.6992352  67.6090158  86.8248347
  76.4332805  67.8040233  88.3023718  74.9242819  59.8989636 102.5601003
  74.2483456  59.7983765 103.2303378  75.7470453  59.7428849 103.0237000
  66.6721678  66.1361572  95.1813518  67.2575115  65.3905260  95.3141423
  66.4746516  66.4465529  96.0650182  69.5260333  69.1712820  90.1975961
  68.8570708  69.6558947  89.7140001  69.3873203  69.4182040  91.1119339
  61.2639333  58.7067172  93.9017962  61.3023432  58.1730763  94.6955080
  60.7579625  58.1802378  93.2828939  68.6430095  53.5531713  97.3980504
  68.7071421  54.4146544  96.9857902  68.5797215  52.9405715  96.6652862
  68.1182367  55.6254846 101.0453538  68.7454406  55.2431923 101.6591062
  67.2610286  55.4069047 101.4109231  64.8947910  57.4331275  86.9771893
  65.1901351  56.5241953  86.9238947  63.9935946  57.4119014  86.6552895
  76.8033989  69.1538539  93.7822301  76.6785128  68.3528279  93.2733247
  77.4613080  69.6484732  93.2936271  68.4242157  55.5087271  92.9599442
  67.7028743  56.1223239  92.8206915  69.2135413  56.0445036  92.8816087
  78.8668897  66.9547559  95.4101851  77.9199233  66.8352910  95.3380178
  79.2151670  66.0670057  95.4928113  71.2268471  52.8441698  99.2340093
  71.7502872  53.0903994  99.9966403  71.0080804  53.6761733  98.8143231
  66.6235752  55.1145372  87.1011218  66.2948458  54.2342751  86.9186324
  66.9775122  55.0593041  87.9887607  75.8715331  66.7500275  91.6106204
  75.7240293  65.8216982  91.7913774  76.6968824  66.7720366  91.1263279
  69.7377575  55.4018342  87.4686696  70.0773647  55.9304263  86.7465304
  70.1849695  55.7398748  88.2445262  79.4749452  67.5728834  92.6971076
  80.3996000  67.3671695  92.5595528  79.3064756  67.3245235  93.6060418
  72.4321016  53.7855393  96.9189764  72.0917836  52.9863206  97.3210444
  71.7260022  54.0857104  96.3466597  73.0837488  50.8704705  95.3717087
  73.9063557  50.3965183  95.2495977  73.3275551  51.6495189  95.8715773
  71.7245722  53.8992964  85.6679989  72.4454085  54.2774216  85.1643705
  71.1011026  54.6181841  85.7714966  75.8676845  54.6038113  86.6038321
  76.0840459  55.4862751  86.3027149  75.3870912  54.2124326  85.8743963
  70.6076066  57.5623826  93.1809065  70.4620647  57.8764129  94.0733347
  70.1301270  58.1808726  92.6279964  72.4672449  54.5526374  93.2289955
  72.4534018  53.6567467  92.8922253  73.1844877  54.5597038  93.8628241
  74.3198580  54.9863714  95.2743082  74.0616358  55.9080785  95.2727413
  73.7883620  54.5894149  95.9643547  79.2644769  68.0914501  88.0533168
  79.4381646  67.5260924  87.3007020  79.7573660  68.8915396  87.8712658
  65.0821728  60.1029170  96.1196727  64.5375197  60.8788978  96.2517001
  65.9601078  60.4499975  95.9615848  71.8709345  53.4340754  88.4977525
  71.9925256  52.5057400  88.6968413  71.5811387  53.4479440  87.5855841
  74.7400535  51.1195665  91.6344245  74.7622232  51.1834998  90.6796225
  75.1568594  50.2800173  91.8284751  85.1184160  60.8550924  89.6723468
  85.5615306  60.1058249  89.2742591  84.2410670  60.8461061  89.2897200
  80.2519941  67.4081266  85.1530066  80.9470846  68.0287958  85.3717381
  80.5943091  66.5576617  85.4282444  65.8687750  59.2299067  99.0126884
  65.1269486  59.3781702  99.5991514  65.5480495  59.4907332  98.1493633
  82.1511364  64.8580971  86.6817397  82.6762688  65.1968244  85.9566717
  82.0633717  63.9227986  86.4980532  73.8352025  70.9252954  91.0412650
  73.3957015  70.4329333  91.7345507  74.5860142  70.3825922  90.8004725
  66.3144364  67.1164495  91.0437278  67.1402384  66.8168267  90.6635922
  65.9638416  66.3472118  91.4927067  71.2825897  66.4690964  93.1134952
  70.6605906  65.8061669  92.8137180  71.9530764  66.4952095  92.4308600
  64.5152969  65.0350822  92.0026212  63.6784877  64.6072996  91.8210213
  64.4876614  65.2283265  92.9397003  71.3550425  54.9472752 102.7067458
  71.4038580  55.8234874 102.3245227  71.8972939  54.4050145 102.1339101
  70.8439404  65.0194887  86.5893412  70.9927524  65.7030351  85.9360085
  71.6505847  64.9999977  87.1042868  79.2506908  58.3237269 100.6160630
  80.1516770  58.1843734 100.3244628  79.3254882  58.4891724 101.5558808
  73.5849713  55.7004124  99.4613816  72.7153022  55.9937690  99.1896405
  73.8209193  56.2844569 100.1821080  84.6617024  62.3256162  92.0645915
  85.4963916  62.7645967  92.2283476  84.7976153  61.8494816  91.2454161
  81.7108530  59.8835897  98.0123403  82.1862652  60.0763544  97.2042254
  80.7874096  59.9395083  97.7666787  68.5992037  61.0460064  87.5954481
  68.3538079  60.1422394  87.7934691  68.7687952  61.0477215  86.6533959
  76.2888747  51.9183741  96.9779237  76.8070691  52.6544768  96.6525725
  75.9343880  52.2247734  97.8125996  67.8687685  56.7788422  85.0940643
  67.1756929  56.8532777  84.4380679  67.6239436  56.0148766  85.6162160
  76.5401341  48.3384023  92.4980133  76.8203095  47.6707212  93.1240560
  77.3251948  48.5313119  91.9854797  74.3434810  67.5143017  84.0605160
  73.7708777  68.1333204  83.6075632  74.9167603  68.0642379  84.5945082
  80.4110199  56.7601657  96.2451709  81.3627622  56.8599755  96.2663933
  80.2413650  55.9679926  96.7549793  78.4324579  53.8457241  96.4311109
  77.8374511  54.1262253  95.7357598  78.1474276  54.3351142  97.2027851
  77.5632069  67.7980167  85.1913742  78.4962743  67.7325729  85.3946618
  77.4755282  68.6336434  84.7328275  80.1920086  67.1146038  82.1517690
  80.1133718  66.7805901  83.0453447  81.0129753  67.6067806  82.1509162
  82.8898277  59.9807777  95.3594008  82.8574597  59.0423778  95.5453692
  83.4998901  60.0591814  94.6259833  74.7281608  58.8503830  81.4021212
  75.6740713  58.7210038  81.4709630  74.3495853  58.1118492  81.8790640
  83.0392766  56.7718821  95.4052291  82.5231814  55.9877277  95.2182220
  83.9232714  56.4437537  95.5698811  80.7003493  50.5159836  91.3648104
  80.5028314  50.2074924  92.2491436  81.3103198  51.2421475  91.4946034
  88.7074827  61.0423784  94.5000045  89.4378216  60.7809072  95.0607748
  88.0981773  60.3052506  94.5402113  86.7890124  59.1831647  95.0974496
  86.0623288  59.0487611  94.4890988  86.3737411  59.4908475  95.9031214
  72.9124525  56.7753806  81.3376097  72.0055981  56.4786919  81.4138811
  73.1900506  56.4783625  80.4710384  63.8302466  58.0960170  91.7875144
  63.5105250  57.2425478  91.4949518  63.2835894  58.3108748  92.5433111
  67.6082373  60.8122611  95.5044650  67.8268383  61.7439719  95.5232684
  68.0208147  60.4530585  96.2899454  74.5286591  51.3190696  87.4920339
  73.7187319  50.9737781  87.8675585  75.2171008  51.0098240  88.0807950
  76.4577139  50.3968743  89.1144635  77.0108178  50.8164196  89.7734658
  76.6947226  49.4704491  89.1567591  72.4810238  56.3855817 104.8947399
  72.3806965  57.3350174 104.8259490  72.2631781  56.0574056 104.0223469
  71.6823310  53.6340742  81.4788077  72.5442474  53.9595640  81.7383894
  71.8673654  52.8472238  80.9661142  63.6990726  61.7163081  93.7568265
  63.0054197  61.3017034  93.2438220  64.4463717  61.7583618  93.1601684
  79.8355946  52.5069268  88.6223300  79.2554615  53.1654072  88.2401352
  79.5691879  51.6846613  88.2110717  78.2859513  51.9074326  90.8244620
  78.7859291  52.0190860  90.0158939  78.9295121  51.6035379  91.4645428
  72.3441509  59.8152955 103.7112461  71.8608590  60.6153316 103.9176350
  72.4302448  59.8260900 102.7579905  65.6127468  61.6481335  91.6334280
  65.5898156  61.7469022  90.6816163  65.9228105  62.4946486  91.9551446
  68.2714846  63.7057490  95.7480895  69.2258100  63.6741432  95.6810826
  68.0727370  63.2448114  96.5631121  68.8614228  62.2758606  98.3151692
  69.6807117  62.7702685  98.3386530  69.1351036  61.3590574  98.2869260
  78.6180824  54.6669359  87.6779648  77.7306679  54.9519009  87.4599843
  79.0334813  54.5063122  86.8306925  81.9695360  54.6915879  91.3933987
  82.7455751  55.1812332  91.6658604  81.2443495  55.1173934  91.8505857
  84.4067919  55.4043499  92.4507928  85.0012410  55.1639235  91.7401236
  84.4794503  54.6850629  93.0781464  66.6265075  69.2477110  92.7651093
  66.4919543  68.4877511  92.1989091  66.2097137  69.9718009  92.2979881
  77.7624038  64.4314033  81.7727668  78.4659888  64.6364036  82.3885323
  77.0386687  64.9990795  82.0376751  78.5921848  60.1823894  87.8929938
  78.5357049  60.6392446  87.0537570  79.1450191  59.4214579  87.7152781
  82.4026654  55.9713626  88.7180058  82.1463588  55.5710262  89.5488265
  81.7779522  56.6857420  88.5930197  86.7138992  58.7109700  91.2251349
  86.1538550  58.7802889  91.9982911  86.1082495  58.5350684  90.5050845
  69.7834201  70.1446427  92.9769535  69.6666585  71.0891859  92.8748225
  68.9626647  69.8419988  93.3655334  79.6710735  64.8696562  83.8226128
  80.5056339  64.4377761  83.6403603  79.5095078  64.6978576  84.7503022
  79.3256627  61.3728676  85.1882467  79.2705431  61.2072947  84.2470911
  78.7002683  62.0804709  85.3444657  64.1149142  56.6096740  99.0143889
  64.7608006  56.0995694  99.5031115  63.9066293  57.3465422  99.5887315
  72.6352753  50.8736785  84.7667786  72.6231423  51.8178625  84.9236056
  73.5276175  50.6906930  84.4727247  70.8088715  70.7974689  96.1925464
  71.7115962  70.8298299  96.5091959  70.5826085  69.8675139  96.2071799
  72.5642317  69.5505675  92.8535542  71.6137948  69.5507537  92.7399915
  72.8674803  68.8038410  92.3371577  76.4504872  47.4679561  89.0213722
  75.6837268  46.9138048  89.1670405  76.8615577  47.5401430  89.8827874
  68.4546633  53.7564357 103.1118904  69.3178095  53.4001162 103.3222228
  67.8812044  53.4178252 103.7994308  80.9671532  77.1929118  89.8439720
  80.4036397  77.1019055  89.0756008  80.8523927  76.3729022  90.3242213
  86.5471091  80.8600086  85.1554185  85.8959071  81.4454166  84.7688199
  87.3415454  81.3906281  85.2149223  80.4726718  77.9489223  85.5541320
  81.2457594  77.4018210  85.4154195  80.8252117  78.8133472  85.7655781
  82.8092996  74.1081889  83.1859769  83.0618517  73.5863410  82.4243232
  81.8717555  73.9448034  83.2886453  88.0246356  78.5490518  85.6923170
  87.3892189  78.6225144  86.4044074  87.6943763  79.1384116  85.0142249
  82.5289285  76.0109995  85.3884144  82.4125543  75.3354898  86.0565229
  82.6391545  75.5242369  84.5716297  84.8720826  75.4720142  89.0930834
  84.5079033  74.9450763  89.8043755  85.7287942  75.0818611  88.9197319
  84.5126313  70.5010042  84.0892182  84.6800715  71.3690278  84.4562653
  84.3223482  70.6637323  83.1653471  84.4915533  72.9567699  85.0738849
  84.3715159  73.4024750  85.9124329  83.7968122  73.3053017  84.5152387
  90.1900600  73.4289172  85.9019183  91.1018456  73.6616559  85.7266881
  89.6810247  74.0126217  85.3394262  83.2867030  74.2712551  87.3672415
  83.9891073  74.7233595  87.8346341  82.9547658  73.6296370  87.9952308
  77.0292364  72.5296104  92.6689548  76.2391418  72.7853633  92.1929659
  77.5203611  73.3444442  92.7741589  78.9807109  72.8940683  89.6273025
  78.1838273  73.0059377  90.1456521  78.7532701  73.2327335  88.7613916
  77.9790192  78.6028932  88.0162445  78.4914712  79.3972182  88.1668010
  78.6312905  77.9055222  87.9496047  75.9439109  76.9317586  88.7922016
  76.7814331  77.3414595  88.5755723  76.1217376  75.9917028  88.7622209
  87.8403541  74.5992667  84.4805849  87.3250164  75.3697272  84.7194236
  87.5680849  73.9257803  85.1038910  85.4250652  69.4442368  89.5391087
  84.5692248  69.0549218  89.3596726  85.8377604  69.5234329  88.6790872
  83.1992684  67.0627441  92.9448828  84.0645681  66.8670249  92.5854718
  83.2670193  66.8337792  93.8718185  87.6289844  72.4719759  86.3065630
  87.3239980  72.7865908  87.1575773  88.5820286  72.5501179  86.3492963
  86.0736276  78.6309982  87.9558584  85.5457637  77.8962742  87.6431821
  85.5723779  79.4084659  87.7098552  80.8055003  69.2929649  90.3165195
  81.3798755  69.0704830  89.5838388  81.3925986  69.3618343  91.0693797
  81.1324591  71.3234110  84.3361081  80.2961903  71.6608796  84.6570355
  80.9929360  71.1883089  83.3988217  83.1077671  66.1670898  89.0440265
  82.4542083  65.8519915  88.4196879  83.0658145  65.5446638  89.7700088
  84.2188876  76.4490193  80.9593557  83.3115938  76.2179446  81.1584706
  84.7159908  75.6527812  81.1467538  87.1250459  74.0544247  88.4990593
  87.8722278  74.5665644  88.1897715  87.3942049  73.7328299  89.3594986
  85.3977109  76.5502787  85.4817547  84.4888329  76.2661820  85.5790017
  85.4272193  76.9701866  84.6220854  89.5729296  71.0901363  90.4809382
  88.8352053  70.5778749  90.8119624  89.8256070  70.6501745  89.6692659
  89.6740924  63.8677615  91.0751151  89.9799801  63.0074978  90.7877066
  90.3993529  64.4595235  90.8750145  75.9665280  74.2708302  89.4632749
  75.7689680  73.6777662  88.7383816  75.4111944  73.9660512  90.1808688
  85.0953197  78.0911531  82.8205625  84.6572627  77.3747390  82.3611263
  85.8363638  78.3187646  82.2590717  81.8854363  72.7808468  89.3417721
  81.0722229  73.0802638  89.7482913  82.3813358  72.3864157  90.0592203
  78.4611506  73.7972335  87.1473701  77.5309094  73.7356791  87.3643663
  78.5568978  73.2748288  86.3510342  78.3797055  70.3227148  89.7351943
  78.6403872  71.2372482  89.6261103  79.2014227  69.8551591  89.8848556
  89.2164425  76.9495913  82.4137683  88.5993595  76.2242741  82.3170736
  88.7480913  77.7105273  82.0704757  81.0062971  71.1681337  81.5358987
  80.1292437  71.0470138  81.1721234  81.4820724  70.3767415  81.2837876
  72.5265111  75.9558497  91.6300494  73.2136151  75.6420227  91.0421510
  72.3713240  76.8599861  91.3567746  77.3299833  70.8448693  96.0585518
  77.2458022  70.2374363  95.3235928  76.5082539  71.3357712  96.0595014
  87.5023547  69.3302257  91.4255713  87.9992246  68.5772219  91.1056783
  86.7310528  69.3666574  90.8598923  84.0858516  71.4719640  91.1527398
  83.7156303  70.9190680  91.8408303  84.5817608  70.8677773  90.6002398
  72.1033087  74.0359090  93.9017962  72.1417187  73.5022681  94.6955080
  71.5973380  73.5094296  93.2828939  75.7341665  72.7623192  86.9771893
  76.0295106  71.8533871  86.9238947  74.8329700  72.7410932  86.6552895
  79.2635912  70.8379189  92.9599442  78.5422497  71.4515157  92.8206915
  80.0529167  71.3736954  92.8816087  77.4629506  70.4437290  87.1011218
  77.1342212  69.5634669  86.9186324  77.8168877  70.3884959  87.9887607
  80.5771329  70.7310260  87.4686696  80.9167402  71.2596181  86.7465304
  81.0243450  71.0690666  88.2445262  82.5639476  69.2284881  85.6679989
  83.2847839  69.6066134  85.1643705  81.9404781  69.9473758  85.7714966
  86.7070599  69.9330030  86.6038321  86.9234214  70.8154668  86.3027149
  86.2264667  69.5416244  85.8743963  83.3066204  69.8818292  93.2289955
  83.2927772  68.9859385  92.8922253  84.0238632  69.8888955  93.8628241
  82.7103100  68.7632672  88.4977525  82.8319011  67.8349318  88.6968413
  82.4205142  68.7771358  87.5855841  85.5794290  66.4487582  91.6344245
  85.6015987  66.5126915  90.6796225  85.9962349  65.6092091  91.8284751
  81.6833159  80.3486805  86.5893412  81.8321279  81.0322269  85.9360085
  82.4899602  80.3291895  87.1042868  79.4385792  76.3751982  87.5954481
  79.1931833  75.4714312  87.7934691  79.6081706  76.3769133  86.6533959
  78.7081439  72.1080340  85.0940643  78.0150684  72.1824695  84.4380679
  78.4633191  71.3440683  85.6162160  87.3795096  63.6675941  92.4980133
  87.6596849  62.9999130  93.1240560  88.1645702  63.8605037  91.9854797
  85.1828564  82.8434935  84.0605160  84.6102531  83.4625122  83.6075632
  85.7561358  83.3934297  84.5945082  91.0313841  82.4437955  82.1517690
  90.9527472  82.1097819  83.0453447  91.8523507  82.9359723  82.1509162
  85.5675363  74.1795748  81.4021212  86.5134467  74.0501956  81.4709630
  85.1889608  73.4410410  81.8790640  91.5397247  65.8451754  91.3648104
  91.3422068  65.5366842  92.2491436  92.1496953  66.5713393  91.4946034
  83.7518280  72.1045724  81.3376097  82.8449735  71.8078837  81.4138811
  84.0294261  71.8075542  80.4710384  74.6696220  73.4252088  91.7875144
  74.3499004  72.5717396  91.4949518  74.1229648  73.6400666  92.5433111
  85.3680345  66.6482614  87.4920339  84.5581074  66.3029699  87.8675585
  86.0564762  66.3390158  88.0807950  87.2970894  65.7260661  89.1144635
  87.8501932  66.1456114  89.7734658  87.5340980  64.7996409  89.1567591
  82.5217064  68.9632659  81.4788077  83.3836228  69.2887558  81.7383894
  82.7067408  68.1764155  80.9661142  90.6749701  67.8361186  88.6223300
  90.0948370  68.4945990  88.2401352  90.4085633  67.0138530  88.2110717
  89.1253267  67.2366244  90.8244620  89.6253046  67.3482778  90.0158939
  89.7688875  66.9327296  91.4645428  76.4521223  76.9773253  91.6334280
  76.4291911  77.0760940  90.6816163  76.7621859  77.8238404  91.9551446
  89.4574579  69.9961276  87.6779648  88.5700434  70.2810927  87.4599843
  89.8728568  69.8355040  86.8306925  88.6017792  79.7605951  81.7727668
  89.3053642  79.9655953  82.3885323  87.8780441  80.3282713  82.0376751
  89.4315603  75.5115812  87.8929938  89.3750804  75.9684364  87.0537570
  89.9843945  74.7506497  87.7152781  93.2420408  71.3005544  88.7180058
  92.9857343  70.9002180  89.5488265  92.6173277  72.0149338  88.5930197
  90.5104490  80.1988480  83.8226128  91.3450094  79.7669679  83.6403603
  90.3488833  80.0270494  84.7503022  90.1650382  76.7020593  85.1882467
  90.1099186  76.5364865  84.2470911  89.5396437  77.4096626  85.3444657
  83.4746507  66.2028702  84.7667786  83.4625177  67.1470542  84.9236056
  84.3669929  66.0198848  84.4727247  87.2898627  62.7971479  89.0213722
  86.5231023  62.2429966  89.1670405  87.7009332  62.8693348  89.8827874
  43.1896074  -3.4505462  71.8799492  42.5384054  -2.8651382  71.4933506
  43.9840437  -2.9199268  71.9394529  37.1151701  -6.3616325  72.2786626
  37.8882577  -6.9087338  72.1399502  37.4677100  -5.4972076  72.4901088
  38.8947409   1.4165793  75.4474287  38.8171439   2.3673618  75.5262767
  38.2909052   1.0711665  76.1049213  40.9923127  -6.1616149  77.2828156
  41.4561473  -5.8828446  76.4932779  40.7279925  -7.0632705  77.1001247
  41.1685778  -3.2252054  74.1679827  41.0331453  -2.3800518  74.5964674
  41.7095590  -3.0232777  73.4045760  34.6215175  -5.7076616  74.7407752
  35.1339696  -4.9133366  74.8913316  35.2737888  -6.4050326  74.6741353
  36.4310060  -2.5910860  76.8230505  36.6076688  -1.6692895  76.6351489
  37.2266893  -2.9052441  77.2524885  42.7161259  -5.6795566  74.6803890
  42.1882621  -6.4142806  74.3677128  42.2148762  -4.9020889  74.4343859
  43.7681938   0.8482152  70.6035550  43.0943637   1.1513848  71.2120507
  44.1547760   1.6511232  70.2541007  45.7154299  -2.3119674  76.9103839
  46.0077274  -1.7514617  76.1916205  46.2252920  -2.0191113  77.6656998
  40.6787925  -1.5339323  77.9997292  40.6364103  -1.3078477  77.0705824
  41.5950623  -1.7675949  78.1483094  41.9673153   1.0161824  72.8182629
  42.1424909   0.5449867  73.6328251  41.2805941   1.6427590  73.0463889
  36.5334239   4.1651187  79.5922489  36.7730837   4.7969711  80.2701507
  35.6903435   3.8139227  79.8787848  40.8351880  -0.7897921  75.5066814
  40.0519402  -0.2476240  75.6005039  41.5344625  -0.2723941  75.9061056
  46.6827093  -4.0370463  73.2575629  46.9586937  -4.1513869  74.1669503
  45.8131592  -4.4352979  73.2187802  43.3181157   0.2115887  76.9008443
  43.5003552  -0.6062457  77.3636195  44.1414143   0.4283580  76.4633333
  43.6523323  -0.8615927  74.1623491  44.1811089  -1.3723473  73.5493654
  43.9151542  -1.1773397  75.0269025  37.0079071   0.1899189  76.9221267
  36.3389446   0.6745317  76.4385307  36.8691941   0.4368410  77.8364646
  44.2852727   0.1724908  80.5067608  44.1603866  -0.6285352  79.9978553
  44.9431818   0.6671102  80.0181578  43.3534068  -2.2313355  78.3351510
  43.2059031  -3.1596648  78.5159080  44.1787562  -2.2093265  77.8508586
  46.9568190  -1.4084797  79.4216383  47.8814738  -1.6141935  79.2840834
  46.7883494  -1.6568396  80.3305725  46.7463506  -0.8899129  74.7778474
  46.9200384  -1.4552707  74.0252327  47.2392398  -0.0898234  74.5957964
  47.7338679  -1.5732365  71.8775373  48.4289584  -0.9525672  72.0962687
  48.0761829  -2.4237014  72.1527751  41.3170763   1.9439324  77.7657957
  40.8775753   1.4515703  78.4590813  42.0678880   1.4012292  77.5250032
  38.3258142  -3.9618744  73.3138719  38.4746262  -3.2783279  72.6605392
  39.1324585  -3.9813654  73.8288175  41.8253547  -1.4670613  70.7850466
  41.2527514  -0.8480426  70.3320938  42.3986341  -0.9171251  71.3190388
  45.0450807  -1.1833463  71.9159049  45.9781480  -1.2487901  72.1191924
  44.9574020  -0.3477196  71.4573581  47.6738824  -1.8667593  68.8762996
  47.5952455  -2.2007729  69.7698754  48.4948491  -1.3745825  68.8754469
  45.2442776  -4.5499597  68.4972975  45.9478626  -4.3449595  69.1130630
  44.5205424  -3.9822835  68.7622058  37.2652938   1.1632796  79.7014842
  37.1485323   2.1078229  79.5993532  36.4445385   0.8606358  80.0900641
  47.1529473  -4.1117068  70.5471435  47.9875077  -4.5435870  70.3648909
  46.9913816  -4.2835054  71.4748329  40.0461055   0.5692045  79.5780849
  39.0956686   0.5693906  79.4645221  40.3493541  -0.1775221  79.0616884
  55.7813748   6.4052583  80.6426611  56.4192158   6.2859330  79.9389951
  55.6634591   7.3533427  80.7014563  52.5903454   6.3580011  80.5788136
  52.2521966   6.2421076  79.6908671  53.4593223   5.9571176  80.5589142
  48.4490270   8.2115488  76.5685027  47.8855135   8.1205425  75.8001315
  48.3342665   7.3915392  77.0487519  53.0723237   7.5114863  86.5374342
  53.0611878   7.1167661  85.6654845  53.2343877   6.7780935  87.1308113
  45.9954702   9.7066679  79.4069247  46.7875994   9.3657504  78.9915547
  46.2351352   9.8161654  80.3271401  54.0289829  11.8786455  71.8799492
  53.3777809  12.4640536  71.4933506  54.8234192  12.4092650  71.9394529
  47.9545456   8.9675592  72.2786626  48.7276332   8.4204580  72.1399502
  48.3070855   9.8319842  72.4901088  49.7930499  10.2951975  85.4853526
  49.5020364  11.1997606  85.3700192  50.4287483  10.3368502  86.1997595
  50.7186705   7.6728823  82.0754885  51.3150278   7.4484846  81.3611848
  50.7761677   6.9313569  82.6780333  50.2911734   5.1268259  69.9105076
  50.5437254   4.6049780  69.1488539  49.3536293   4.9634404  70.0131760
  55.3355017   4.1304037  77.7179819  56.1218106   3.7123460  77.3670236
  55.5993721   5.0350129  77.8861468  55.5065094   9.5676887  72.4168476
  54.8710927   9.6411514  73.1289381  55.1762500  10.1570486  71.7387555
  60.7363444   4.0679270  78.6212798  61.4688616   3.4978487  78.8550627
  59.9802799   3.6800871  79.0619303  50.0108023   7.0296364  72.1129451
  49.8944281   6.3541268  72.7810535  50.1210282   6.5428738  71.2961604
  52.3539563   6.4906512  75.8176140  51.9897771   5.9637133  76.5289062
  53.2106679   6.1004981  75.6442626  51.9945050   1.5196411  70.8137489
  52.1619453   2.3876648  71.1807960  51.8042219   1.6823693  69.8898778
  54.7520384   9.9813390  82.4803319  54.4521107  10.8838429  82.3719126
  54.4071443   9.7145573  83.3324472  48.2032865   6.4327187  78.5140024
  47.2783362   6.3003401  78.7217715  48.4517278   7.2121406  79.0109966
  58.1517527   2.4995930  80.1600757  57.2434405   2.4311339  79.8659517
  58.1005123   2.9767875  80.9882582  51.9734271   3.9754069  71.7984156
  51.8533896   4.4211120  72.6369636  51.2786860   4.3239386  71.2397694
  45.5641676   6.0760461  79.3483813  45.6934057   6.3294940  80.2623224
  44.8839127   6.6688169  79.0288468  49.7341163  16.7457711  75.4474287
  49.6565193  17.6965536  75.5262767  49.1302807  16.4003583  76.1049213
  52.2258393   3.9185576  88.1035654  51.4491727   4.4779496  88.0938518
  52.8648956   4.4042359  88.6250524  60.0179174   0.7012369  81.9378630
  59.3753554   0.9944902  81.2918425  59.5134102   0.5865289  82.7431827
  57.6719337   4.4475542  72.6264490  58.5837194   4.6802929  72.4512187
  57.1628985   5.0312586  72.0639568  50.4804765   6.7271029  87.6653621
  51.2219450   7.2656073  87.3888444  49.7741751   7.3537318  87.8225173
  55.9560105   8.8700170  86.2625782  56.3643461   8.4282580  85.5180415
  55.2337367   8.2952797  86.5159975  52.3091175   3.8072777  83.6359339
  53.1552370   4.2312190  83.7793988  52.2489813   3.1506401  84.3297902
  56.2788920   9.4301360  80.0178071  55.6497782   9.5947075  79.3154139
  55.8914582   9.8442970  80.7889035  60.1578152  10.3655798  77.3722435
  59.4729190  10.7454700  76.8219468  60.2422001  10.9751125  78.1054383
  55.4590620   1.4677145  85.2940513  55.2151552   2.2219205  84.7574789
  55.7350551   1.8462493  86.1287760  57.4129083   8.0115757  83.9717778
  57.6245978   8.6547517  83.2952160  57.3658832   7.1778074  83.5039709
  55.0155312   0.6233578  80.8754351  54.1539791   0.9214832  81.1671088
  55.0417747   0.8403977  79.9435383  51.8316882   9.1675769  77.2828156
  52.2955227   9.4463471  76.4932779  51.5673680   8.2659213  77.1001247
  48.7240963   8.7147250  80.2207920  49.2942320   9.1434518  79.5825404
  49.3149075   8.4329835  80.9192105  50.7685768   5.2898921  74.0917721
  51.4709811   5.7419965  74.5591648  50.4366396   4.6482740  74.7197615
  44.5111102   3.5482474  79.3934855  43.7210156   3.8040002  78.9174966
  45.0022349   4.3630811  79.4986896  58.5274911  10.8887713  82.1440136
  59.3492355  10.4867900  81.8622817  58.5237314  10.7855947  83.0956252
  46.4625847   3.9127053  76.3518332  45.6657010   4.0245747  76.8701827
  46.2351439   4.2513705  75.4859222  52.2931515  10.4371756  84.3000846
  52.3575947  10.8992163  85.1359018  51.5842439   9.8069121  84.4283156
  42.7948805   3.8012964  81.8249846  43.0456843   4.6859974  82.0907422
  43.3308353   3.6217566  81.0524938  66.6180904   7.2326461  78.4925107
  65.8644613   6.6633859  78.3369112  66.7528445   7.1989126  79.4395742
  52.0079532  12.1039864  74.1679827  51.8725207  12.9491399  74.5964674
  52.5489345  12.3059141  73.4045760  45.4608930   9.6215302  74.7407752
  45.9733450  10.4158552  74.8913316  46.1131643   8.9241592  74.6741353
  47.2703814  12.7381058  76.8230505  47.4470443  13.6599023  76.6351489
  48.0660648  12.4239477  77.2524885  53.6348009  12.7263430  88.2980169
  53.1911863  11.9399809  87.9801073  54.2965222  12.9142581  87.6324059
  48.3935130  14.2559232  82.8240847  48.9442555  14.1276295  82.0517841
  47.5546606  14.5554121  82.4735740  55.7329247  13.0066230  86.3261570
  55.7147722  13.8275111  85.8341839  56.6549167  12.8820305  86.5511711
  52.1902301  10.5210359  87.1685078  52.7230638   9.7598648  86.9384386
  51.6616382  10.2284011  87.9109233  43.4257846   7.9503956  75.5167322
  44.2633068   8.3600964  75.3001030  43.6036114   7.0103398  75.4867516
  55.3222279   5.6179036  71.2051155  54.8068902   6.3883641  71.4439543
  55.0499587   4.9444173  71.8284217  52.9069390   0.4628737  76.2636394
  52.0510986   0.0735588  76.0842032  53.3196341   0.5420698  75.4036179
  54.4368536  -2.0024919  80.6627953  53.9333332  -2.0394784  79.8495759
  54.7299143  -1.0932177  80.7224610  50.6811422  -1.9186190  79.6694135
  51.5464419  -2.1143381  79.3100025  50.7488931  -2.1475838  80.5963492
  60.2956553   8.3711391  73.1404329  59.5185995   8.0322551  72.6959491
  60.9748034   8.3764014  72.4659294  55.1108582   3.4906129  73.0310936
  54.8058717   3.8052278  73.8821080  56.0639024   3.5687548  73.0738269
  53.5555014   9.6496352  74.6803890  53.0276375   8.9149111  74.3677128
  53.0542516  10.4271028  74.4343859  58.5347860   7.8445372  79.7970937
  57.8771534   8.5344634  79.8851065  59.3388259   8.2341804  80.1404923
  48.2873741   0.3116018  77.0410502  48.8617493   0.0891200  76.3083695
  48.8744724   0.3804713  77.7939103  57.3453318   6.1989745  77.8474878
  57.8585200   6.8319737  78.3496588  57.9954542   5.5990941  77.4818238
  48.6143328   2.3420479  71.0606387  47.7780641   2.6795166  71.3815662
  48.4748098   2.2069459  70.1233524  50.5896409  -2.8142733  75.7685571
  49.9360821  -3.1293716  75.1442186  50.5476883  -3.4366992  76.4945394
  51.7007614   7.4676562  67.6838863  50.7934676   7.2365816  67.8830012
  52.1978646   6.6714181  67.8712845  54.6075693  16.1774069  70.6035550
  53.9337391  16.4805766  71.2120507  54.9941515  16.9803150  70.2541007
  53.8234149   3.6739201  80.0933219  52.9056711   3.8954148  79.9354907
  54.2394293   3.7485511  79.2344926  54.6069197   5.0730616  75.2235899
  55.3541016   5.5852014  74.9143021  54.8760787   4.7514669  76.0840293
  52.8795847   7.5689157  72.2062853  51.9707066   7.2848190  72.3035323
  52.9090931   7.9888236  71.3466160  58.1115115  11.1795747  75.9754021
  57.6577442  10.3386656  76.0319212  57.4809081  11.8157145  76.3128801
  57.0548034   2.1087733  77.2054688  56.3170791   1.5965119  77.5364931
  57.3074808   1.6688114  76.3937965  56.5548054  13.0172243  76.9103839
  56.8471028  13.5777300  76.1916205  57.0646674  13.3100804  77.6656998
  43.4484018   5.2894671  76.1878056  43.2508417   4.6964032  75.4629122
  42.8930682   4.9846881  76.9053994  51.4280741   5.1817778  78.3072649
  51.4829351   4.2291614  78.2315125  50.6171943   5.3377217  78.7913947
  52.5771935   9.1097901  69.5450932  52.1391365   8.3933760  69.0856569
  53.3182376   9.3374016  68.9836023  49.3673101   3.7994837  76.0663028
  48.5540967   4.0989008  76.4728220  49.8632095   3.4050526  76.7837510
  51.5181679  13.7952594  77.9997292  51.4757858  14.0213441  77.0705824
  52.4344378  13.5615969  78.1483094  54.9647313   4.2636662  84.8977922
  55.3196701   4.4908135  85.7572387  55.6119444   4.5955039  84.2755177
  60.6945050   7.3855098  75.6027251  60.5562948   7.5756694  74.6748440
  60.3381269   8.1474481  76.0595302  48.8587176   1.3713193  81.6824263
  49.4986555   1.2301952  80.9847226  48.0264707   1.0847706  81.3062865
  60.7214429   9.4531625  80.6138522  61.1550936   9.3606914  81.4621576
  61.4346010   9.4289125  79.9758538  49.6347480  10.6715623  77.7959255
  50.4288078  10.1765943  77.5941830  48.9239172  10.1433486  77.4326961
  54.4542324  13.0533719  82.1471623  54.5079347  13.6224655  82.9149339
  53.5857106  13.2235604  81.7825660  45.9430243   4.8158705  73.8719008
  45.0127831   4.7543161  74.0888970  46.0387715   4.2934658  73.0755649
  45.8615792   1.3413518  76.4597249  46.1222610   2.2558851  76.3506410
  46.6832965   0.8737960  76.6093862  47.3340718   2.7551275  83.6296074
  48.0063771   2.5468637  82.9808723  46.5070504   2.5573361  83.1901306
  61.5829979   9.4955325  83.1471408  61.7765869  10.4001136  83.3930682
  61.4830597   9.0362744  83.9809993  53.2366290  -0.6186784  85.6461735
  52.5894205   0.0803166  85.5526211  54.0067305  -0.1850640  86.0137983
  56.6445088   9.6462068  88.7212288  56.4930594   9.4172620  87.8042372
  56.6349767  10.6032670  88.7343633  53.4130424   7.2193981  83.7058555
  54.3422484   7.3705141  83.5327522  52.9921454   7.3078002  82.8507201
  52.2118756  11.2444645  81.4757092  52.0729842  10.8763430  82.3483030
  51.4233352  11.7592285  81.3041050  52.8066908  16.3453742  72.8182629
  52.9818664  15.8741785  73.6328251  52.1199696  16.9719508  73.0463889
  53.7623971  10.6226248  78.8645930  53.4273804  10.5827018  79.7603580
  53.2627917   9.9570964  78.3916340  47.7368215   6.0293878  84.3898511
  47.5988013   5.2974117  84.9910050  48.6473138   5.9402778  84.1082699
  56.6983163   7.9682282  69.1382990  56.0812333   7.2429111  69.0416042
  56.2299651   8.7291643  68.7950064  50.3650516   5.7413837  83.8782191
  51.0750134   5.1007030  83.8368809  50.3219824   5.9926732  84.8008372
  58.3537294  12.6781191  86.7988770  58.2949840  11.9940411  86.1319353
  58.7556813  13.4200181  86.3469396  47.3727993  19.4943105  79.5922489
  47.6124591  20.1261629  80.2701507  46.5297190  19.1431145  79.8787848
  48.4881709   2.1867707  68.2604294  47.6111175   2.0656507  67.8966541
  48.9639462   1.3953785  68.0083183  58.3554702  10.6420775  85.0302750
  57.4681480  10.3046696  85.1529149  58.9253253   9.9103806  85.2671515
  40.0083849   6.9744866  78.3545801  40.6954889   6.6606596  77.7666816
  39.8531977   7.8786231  78.0813052  44.8118571   1.8635063  82.7830825
  44.7276760   1.2560732  82.0481235  43.9901277   2.3544081  82.7840321
  51.8855855  15.3022227  81.9963993  51.8126026  16.1077198  82.5083297
  51.4433248  15.5014193  81.1712014  51.6745635  14.5393997  75.5066814
  50.8913156  15.0815677  75.6005039  52.3738380  15.0567977  75.9061056
  54.9842285   0.3488626  78.1501020  55.4810984  -0.4041411  77.8302090
  54.2129266   0.3852943  77.5844229  62.8372042   6.0528992  79.7919311
  62.8261918   6.9353707  79.4213244  61.9689422   5.7000543  79.5973848
  54.3454538  15.2009061  84.1522152  55.0582511  15.8356526  84.0798053
  53.8544567  15.2972927  83.3362153  56.0672065   9.1060314  75.7239443
  55.1328344   9.2261776  75.5544148  56.2448734   8.2032780  75.4599453
  51.5677253   2.4906009  77.8772704  51.1975041   1.9377050  78.5653610
  52.0636346   1.8864143  77.3247704  59.4544617   4.9477633  76.2589477
  59.9205069   5.7805625  76.1849780  59.9052117   4.4822615  76.9634736
  49.3966452  12.9503504  84.9727722  50.0975912  13.5839987  85.1257117
  48.9261567  13.2918236  84.2123362  57.5220848  11.2921454  73.2575629
  57.7980692  11.1778049  74.1669503  56.6525347  10.8938939  73.2187802
  57.1967738   5.5048112  82.7980273  56.5439188   5.7524019  82.1432725
  57.5748118   4.6912250  82.4642750  54.1574912  15.5407805  76.9008443
  54.3397306  14.7229461  77.3636195  54.9807898  15.7575497  76.4633333
  54.4917077  14.4675990  74.1623491  55.0204844  13.9568445  73.5493654
  54.7545297  14.1518520  75.0269025  44.9934170  12.4839860  81.9058825
  45.5787607  11.7383547  82.0386729  44.7959009  12.7943816  82.7895489
  47.8472825  15.5191107  76.9221267  47.1783201  16.0037235  76.4385307
  47.7085695  15.7660327  77.8364646  39.5851825   5.0545460  80.6263268
  39.6235924   4.5209050  81.4200386  39.0792118   4.5280665  80.0074245
  51.9878094  17.5534850  83.5203926  52.5396402  17.7166472  84.2853011
  52.3284287  18.1439288  82.8483951  56.8388968  12.3796108  89.3752580
  57.3828872  12.9926066  88.8807535  56.2575813  12.9375686  89.8919593
  43.2160402   3.7809562  73.7017200  43.5113843   2.8720240  73.6484253
  42.3148438   3.7597301  73.3798202  55.1246481  15.5016826  80.5067608
  54.9997621  14.7006566  79.9978553  55.7825572  15.9963019  80.0181578
  46.7454649   1.8565558  79.6844748  46.0241235   2.4701526  79.5452221
  47.5347905   2.3923323  79.6061394  57.1881390  13.3025846  82.1347158
  56.2411725  13.1831197  82.0625485  57.5364163  12.4148344  82.2173419
  44.9448244   1.4623660  73.8256525  44.6160950   0.5821038  73.6431631
  45.2987615   1.4071328  74.7132914  54.1927823  13.0978562  78.3351510
  54.0452785  12.1695270  78.5159080  55.0181316  13.1198653  77.8508586
  48.0590067   1.7496629  74.1932002  48.3986140   2.2782551  73.4710611
  48.5062188   2.0877035  74.9690569  57.7961945  13.9207121  79.4216383
  58.7208492  13.7149982  79.2840834  57.6277248  13.6723522  80.3305725
  50.7533508   0.1333680  83.6435070  50.4130328  -0.6658507  84.0455750
  50.0472514   0.4335391  83.0711904  50.0458214   0.2471251  72.3925295
  50.7666577   0.6252504  71.8889012  49.4223518   0.9660128  72.4960273
  54.1889337   0.9516400  73.3283628  54.4052952   1.8341038  73.0272456
  53.7083404   0.5602613  72.5989269  48.9288559   3.9102113  79.9054372
  48.7833139   4.2242416  80.7978654  48.4513762   4.5287013  79.3525271
  50.7884941   0.9004661  79.9535262  50.7746510   0.0045754  79.6167560
  51.5057370   0.9075325  80.5873548  52.6411072   1.3342001  81.9988389
  52.3828850   2.2559072  81.9972720  52.1096113   0.9372436  82.6888853
  57.5857261  14.4392788  74.7778474  57.7594138  13.8739211  74.0252327
  58.0786152  15.2393683  74.5957964  43.4034221   6.4507458  82.8442033
  42.8587689   7.2267265  82.9762308  44.2813571   6.7978262  82.6861155
  50.1921837  -0.2180959  75.2222832  50.3137749  -1.1464312  75.4213719
  49.9023880  -0.2042273  74.3101147  63.4396652   7.2029211  76.3968774
  63.8827798   6.4536537  75.9987897  62.5623162   7.1939348  76.0142506
  58.5732433  13.7559553  71.8775373  59.2683338  14.3766246  72.0962687
  58.9155584  12.9054904  72.1527751  60.4723857  11.2059258  73.4062704
  60.9975181  11.5446531  72.6812024  60.3846209  10.2706274  73.2225838
  52.1343905  15.1193332  85.5352580  52.4431032  14.8742479  86.4075280
  52.9319387  15.3239970  85.0471450  52.1564517  17.2731242  77.7657957
  51.7169508  16.7807620  78.4590813  52.9072634  16.7304209  77.5250032
  44.6356856  13.4642783  77.7682585  45.4614876  13.1646554  77.3881228
  44.2850908  12.6950405  78.2172373  49.6038389  12.8169251  79.8380258
  48.9818399  12.1539956  79.5382486  50.2743256  12.8430383  79.1553906
  42.8365461  11.3829109  78.7271518  41.9997370  10.9551283  78.5455520
  42.8089107  11.5761552  79.6642310  60.1617763  11.8392162  88.7113901
  59.3713306  11.8216301  88.1718401  59.9251117  12.3780456  89.4662938
  60.2815638   8.6884628  86.0246630  60.3313643   8.5234636  86.9662153
  60.1729561   7.8211887  85.6344511  49.1651896  11.3673174  73.3138719
  49.3140017  12.0508638  72.6605392  49.9718340  11.3478264  73.8288175
  57.5719400   4.6715556  87.3405937  58.4729263   4.5322021  87.0489935
  57.6467375   4.8370011  88.2804114  51.9062205   2.0482411  86.1859123
  51.0365515   2.3415977  85.9141712  52.1421686   2.6322856  86.9066387
  61.7833834  11.1081570  86.2688652  61.4918643  11.4711550  87.1052113
  61.1705966  10.3948578  86.0901984  62.9829517   8.6734450  78.7891222
  63.8176408   9.1124254  78.9528782  63.1188646   8.1973103  77.9699468
  60.0321023   6.2314185  84.7368710  60.5075144   6.4241831  83.9287561
  59.1086588   6.2873370  84.4912093  46.9204529   7.3938352  74.3199788
  46.6750571   6.4900682  74.5179998  47.0900444   7.3955502  73.3779266
  54.6101239  -1.7337972  83.7024543  55.1283183  -0.9976945  83.3771032
  54.2556372  -1.4273979  84.5371303  46.1900177   3.1266709  71.8185949
  45.4969422   3.2011064  71.1625985  45.9451929   2.3627053  72.3407466
  52.6647302  13.8621305  70.7850466  52.0921269  14.4811492  70.3320938
  53.2380096  14.4120666  71.3190388  58.7322692   3.1079945  82.9697015
  59.6840115   3.2078042  82.9909239  58.5626142   2.3158213  83.4795100
  56.7537071   0.1935528  83.1556416  56.1587003   0.4740541  82.4602905
  56.4686768   0.6829429  83.9273157  55.8844562  14.1458455  71.9159049
  56.8175235  14.0804016  72.1191924  55.7967774  14.9814722  71.4573581
  58.5132578  13.4624325  68.8762996  58.4346210  13.1284189  69.7698754
  59.3342245  13.9546093  68.8754469  61.2110769   6.3286064  82.0839315
  61.1787090   5.3902065  82.2698999  61.8211393   6.4070101  81.3505140
  53.0494100   5.1982117  68.1266519  53.9953205   5.0688325  68.1954937
  52.6708345   4.4596779  68.6035947  61.3605258   3.1197108  82.1297598
  60.8444307   2.3355564  81.9427527  62.2445206   2.7915824  82.2944117
  67.0287319   7.3902071  81.2245352  67.7590708   7.1287359  81.7853055
  66.4194265   6.6530793  81.2647420  65.1102616   5.5309934  81.8219803
  64.3835780   5.3965899  81.2136294  64.6949903   5.8386762  82.6276521
  52.9332793   9.2499863  89.5867176  53.8535802   9.4278462  89.7807222
  52.8982376   8.3055909  89.4346875  51.2337018   3.1232094  68.0621404
  50.3268473   2.8265206  68.1384118  51.5112999   2.8261912  67.1955690
  42.1514958   4.4438457  78.5120450  41.8317742   3.5903765  78.2194824
  41.6048386   4.6587035  79.2678418  45.9294865   7.1600898  82.2289957
  46.1480875   8.0918006  82.2477991  46.3420639   6.8008872  83.0144761
  50.0035802  -0.0180971  68.2033383  50.8654966   0.3073927  68.4629201
  50.1886146  -0.8049475  67.6906449  42.0203218   8.0641369  80.4813572
  41.3266689   7.6495321  79.9683526  42.7676209   8.1061905  79.8846991
  43.9339960   7.9959622  78.3579587  43.9110649   8.0947310  77.4061470
  44.2440597   8.8424773  78.6796753  46.5927338  10.0535777  82.4726201
  47.5470592  10.0219720  82.4056133  46.3939862   9.5926401  83.2876427
  47.1826720   8.6236893  85.0396999  48.0019609   9.1180972  85.0631836
  47.4563528   7.7068862  85.0114567  56.9393317   1.0147646  74.4024955
  56.0519172   1.2997296  74.1845149  57.3547306   0.8541409  73.5552231
  60.2907853   1.0394167  78.1179294  61.0668243   1.5290619  78.3903911
  59.5655987   1.4652221  78.5751163  62.7280411   1.7521786  79.1753234
  63.3224902   1.5117522  78.4646543  62.8006995   1.0328917  79.8026771
  44.9477567  15.5955397  79.4896399  44.8132035  14.8355798  78.9234397
  44.5309629  16.3196297  79.0225188  56.0836530  10.7792320  68.4972975
  56.7872380  10.9842323  69.1130630  55.3599179  11.3469082  68.7622058
  56.9134340   6.5302182  74.6175245  56.8569542   6.9870733  73.7782877
  57.4662683   5.7692866  74.4398087  60.7239146   2.3191914  75.4425364
  60.4676081   1.9188549  76.2733572  60.0992014   3.0335707  75.3175503
  65.0351484   5.0587987  77.9496656  64.4751042   5.1281176  78.7228218
  64.4294987   4.8828971  77.2296152  48.1046693  16.4924714  79.7014842
  47.9879077  17.4370146  79.5993532  47.2839139  16.1898275  80.0900641
  57.9923227  11.2174850  70.5471435  58.8268831  10.7856048  70.3648909
  57.8307570  11.0456863  71.4748329  57.6469120   7.7206963  71.9127774
  57.5917923   7.5551234  70.9716218  57.0215175   8.4282996  72.0689964
  54.9615027  10.0255875  91.2381337  55.8306186  10.1996527  90.8767972
  54.4821778  10.8450292  91.1157066  50.9565245  -2.7784928  71.4913092
  50.9443915  -1.8343088  71.6481363  51.8488667  -2.9614783  71.1972553
  49.1301207  17.1452976  82.9170770  50.0328454  17.1776586  83.2337265
  48.9038577  16.2153427  82.9317106  50.8854809  15.8983962  79.5780849
  49.9350440  15.8985824  79.4645221  51.1887295  15.1516697  79.0616884
  66.6207503  21.7344501  80.6426611  67.2585913  21.6151248  79.9389951
  66.5028345  22.6825345  80.7014563  63.4297209  21.6871929  80.5788136
  63.0915720  21.5712994  79.6908671  64.2986977  21.2863094  80.5589142
  59.2884025  23.5407405  76.5685027  58.7248890  23.4497342  75.8001315
  59.1736420  22.7207310  77.0487519  63.9116992  22.8406781  86.5374342
  63.9005633  22.4459579  85.6654845  64.0737631  22.1072853  87.1308113
  56.8348456  25.0358597  79.4069247  57.6269748  24.6949421  78.9915547
  57.0745107  25.1453572  80.3271401  64.8683583  27.2078373  71.8799492
  64.2171563  27.7932453  71.4933506  65.6627946  27.7384568  71.9394529
  58.7939210  24.2967510  72.2786626  59.5670086  23.7496497  72.1399502
  59.1464609  25.1611759  72.4901088  60.6324253  25.6243892  85.4853526
  60.3414119  26.5289523  85.3700192  61.2681237  25.6660420  86.1997595
  61.5580460  23.0020741  82.0754885  62.1544032  22.7776763  81.3611848
  61.6155431  22.2605486  82.6780333  61.1305488  20.4560176  69.9105076
  61.3831009  19.9341697  69.1488539  60.1930047  20.2926322  70.0131760
  66.1748771  19.4595955  77.7179819  66.9611860  19.0415378  77.3670236
  66.4387475  20.3642047  77.8861468  66.3458848  24.8968805  72.4168476
  65.7104681  24.9703431  73.1289381  66.0156255  25.4862404  71.7387555
  71.5757198  19.3971188  78.6212798  72.3082370  18.8270405  78.8550627
  70.8196554  19.0092788  79.0619303  60.8501777  22.3588282  72.1129451
  60.7338035  21.6833186  72.7810535  60.9604037  21.8720656  71.2961604
  63.1933318  21.8198429  75.8176140  62.8291525  21.2929050  76.5289062
  64.0500434  21.4296898  75.6442626  69.0982619  13.1092762  83.0807406
  68.7665943  13.9788173  82.8568621  68.5028232  12.7929046  83.7601437
  62.8338805  16.8488329  70.8137489  63.0013207  17.7168565  71.1807960
  62.6435974  17.0115611  69.8898778  65.5914138  25.3105308  82.4803319
  65.2914861  26.2130347  82.3719126  65.2465198  25.0437491  83.3324472
  59.0426620  21.7619105  78.5140024  58.1177116  21.6295319  78.7217715
  59.2911033  22.5413324  79.0109966  68.9911282  17.8287848  80.1600757
  68.0828159  17.7603256  79.8659517  68.9398878  18.3059793  80.9882582
  62.8128026  19.3045986  71.7984156  62.6927651  19.7503037  72.6369636
  62.1180614  19.6531304  71.2397694  56.4035431  21.4052378  79.3483813
  56.5327812  21.6586857  80.2623224  55.7232882  21.9980086  79.0288468
  60.5734918  32.0749628  75.4474287  60.4958948  33.0257453  75.5262767
  59.9696561  31.7295501  76.1049213  63.0652148  19.2477494  88.1035654
  62.2885482  19.8071414  88.0938518  63.7042711  19.7334277  88.6250524
  70.8572928  16.0304286  81.9378630  70.2147309  16.3236820  81.2918425
  70.3527857  15.9157207  82.7431827  68.5113092  19.7767460  72.6264490
  69.4230948  20.0094846  72.4512187  68.0022739  20.3604504  72.0639568
  61.3198520  22.0562947  87.6653621  62.0613204  22.5947991  87.3888444
  60.6135505  22.6829236  87.8225173  66.7953860  24.1992087  86.2625782
  67.2037216  23.7574498  85.5180415  66.0731121  23.6244715  86.5159975
  63.1484930  19.1364694  83.6359339  63.9946125  19.5604108  83.7793988
  63.0883567  18.4798319  84.3297902  67.1182674  24.7593278  80.0178071
  66.4891537  24.9238992  79.3154139  66.7308336  25.1734888  80.7889035
  70.9971906  25.6947716  77.3722435  70.3122944  26.0746617  76.8219468
  71.0815755  26.3043043  78.1054383  66.2984375  16.7969063  85.2940513
  66.0545307  17.5511123  84.7574789  66.5744305  17.1754410  86.1287760
  68.2522838  23.3407675  83.9717778  68.4639733  23.9839435  83.2952160
  68.2052586  22.5069992  83.5039709  65.8549067  15.9525496  80.8754351
  64.9933546  16.2506749  81.1671088  65.8811501  16.1695895  79.9435383
  62.6710636  24.4967686  77.2828156  63.1348982  24.7755389  76.4932779
  62.4067434  23.5951131  77.1001247  59.5634717  24.0439168  80.2207920
  60.1336074  24.4726436  79.5825404  60.1542829  23.7621752  80.9192105
  61.6079522  20.6190839  74.0917721  62.3103566  21.0711882  74.5591648
  61.2760151  19.9774657  74.7197615  60.0559884  19.2102595  88.4668931
  59.4258544  19.8918876  88.7004328  59.9495972  19.0985677  87.5222069
  55.3504856  18.8774391  79.3934855  54.5603910  19.1331920  78.9174966
  55.8416104  19.6922729  79.4986896  69.3668666  26.2179630  82.1440136
  70.1886109  25.8159818  81.8622817  69.3631069  26.1147865  83.0956252
  57.3019602  19.2418970  76.3518332  56.5050765  19.3537665  76.8701827
  57.0745194  19.5805623  75.4859222  63.1325269  25.7663674  84.3000846
  63.1969702  26.2284081  85.1359018  62.4236193  25.1361039  84.4283156
  53.6342559  19.1304882  81.8249846  53.8850598  20.0151892  82.0907422
  54.1702108  18.9509483  81.0524938  77.4574659  22.5618379  78.4925107
  76.7038367  21.9925777  78.3369112  77.5922200  22.5281043  79.4395742
  62.8473287  27.4331781  74.1679827  62.7118962  28.2783317  74.5964674
  63.3883099  27.6351059  73.4045760  59.3340626  13.5123361  90.8294182
  58.9407572  12.9589560  91.5041826  60.1506767  13.8233940  91.2200699
  56.3002684  24.9507219  74.7407752  56.8127205  25.7450469  74.8913316
  56.9525397  24.2533510  74.6741353  58.1097569  28.0672975  76.8230505
  58.2864197  28.9890940  76.6351489  58.9054402  27.7531395  77.2524885
  62.2508587  14.9281240  88.4214438  62.9918301  15.5288393  88.3418901
  62.4826510  14.1858878  87.8632481  57.3949925  20.1137607  86.6992668
  57.2803441  19.2122865  86.9999767  56.5394443  20.3601304  86.3477485
  64.4741763  28.0555348  88.2980169  64.0305617  27.2691726  87.9801073
  65.1358977  28.2434498  87.6324059  59.2328884  29.5851149  82.8240847
  59.7836309  29.4568213  82.0517841  58.3940360  29.8846038  82.4735740
  66.5723001  28.3358148  86.3261570  66.5541477  29.1567029  85.8341839
  67.4942921  28.2112223  86.5511711  63.0296055  25.8502277  87.1685078
  63.5624392  25.0890565  86.9384386  62.5010136  25.5575929  87.9109233
  66.1965750  10.9562343  82.6978720  65.8530020  11.8463985  82.6217831
  66.5644713  10.7664001  81.8348305  54.2651601  23.2795874  75.5167322
  55.1026823  23.6892882  75.3001030  54.4429869  22.3395316  75.4867516
  66.1616033  20.9470954  71.2051155  65.6462657  21.7175559  71.4439543
  65.8893342  20.2736090  71.8284217  63.7463144  15.7920655  76.2636394
  62.8904740  15.4027505  76.0842032  64.1590096  15.8712616  75.4036179
  65.2762291  13.3266998  80.6627953  64.7727086  13.2897133  79.8495759
  65.5692898  14.2359741  80.7224610  61.5205177  13.4105728  79.6694135
  62.3858173  13.2148537  79.3100025  61.5882686  13.1816080  80.5963492
  71.1350307  23.7003309  73.1404329  70.3579750  23.3614468  72.6959491
  71.8141788  23.7055932  72.4659294  65.9502336  18.8198046  73.0310936
  65.6452472  19.1344195  73.8821080  66.9032778  18.8979466  73.0738269
  64.3948768  24.9788270  74.6803890  63.8670130  24.2441029  74.3677128
  63.8936271  25.7562946  74.4343859  69.3741614  23.1737290  79.7970937
  68.7165289  23.8636551  79.8851065  70.1782013  23.5633722  80.1404923
  59.1267496  15.6407936  77.0410502  59.7011248  15.4183117  76.3083695
  59.7138478  15.7096630  77.7939103  68.1847073  21.5281663  77.8474878
  68.6978955  22.1611655  78.3496588  68.8348297  20.9282858  77.4818238
  59.4537083  17.6712397  71.0606387  58.6174395  18.0087083  71.3815662
  59.3141852  17.5361377  70.1233524  61.4290163  12.5149185  75.7685571
  60.7754576  12.1998202  75.1442186  61.3870638  11.8924925  76.4945394
  62.5401368  22.7968480  67.6838863  61.6328430  22.5657733  67.8830012
  63.0372400  22.0006099  67.8712845  65.4469447  31.5065987  70.6035550
  64.7731146  31.8097684  71.2120507  65.8335269  32.3095067  70.2541007
  64.6627904  19.0031118  80.0933219  63.7450465  19.2246065  79.9354907
  65.0788047  19.0777429  79.2344926  65.4462952  20.4022534  75.2235899
  66.1934770  20.9143931  74.9143021  65.7154541  20.0806587  76.0840293
  63.7189602  22.8981075  72.2062853  62.8100821  22.6140108  72.3035323
  63.7484686  23.3180153  71.3466160  68.9508869  26.5087664  75.9754021
  68.4971196  25.6678574  76.0319212  68.3202836  27.1449063  76.3128801
  67.8941789  17.4379650  77.2054688  67.1564545  16.9257036  77.5364931
  68.1468562  16.9980032  76.3937965  67.3941808  28.3464161  76.9103839
  67.6864783  28.9069218  76.1916205  67.9040429  28.6392722  77.6656998
  67.9953416  10.2155902  77.7996458  68.3012293   9.3553266  77.5122373
  68.7206021  10.8073522  77.5995452  54.2877772  20.6186589  76.1878056
  54.0902172  20.0255950  75.4629122  53.7324436  20.3138799  76.9053994
  62.2674496  20.5109695  78.3072649  62.3223106  19.5583532  78.2315125
  61.4565698  20.6669134  78.7913947  63.4165690  24.4389818  69.5450932
  62.9785119  23.7225677  69.0856569  64.1576130  24.6665933  68.9836023
  60.2066856  19.1286755  76.0663028  59.3934721  19.4280926  76.4728220
  60.7025850  18.7342444  76.7837510  62.3575434  29.1244512  77.9997292
  62.3151612  29.3505358  77.0705824  63.2738132  28.8907887  78.1483094
  65.8041067  19.5928580  84.8977922  66.1590455  19.8200053  85.7572387
  66.4513199  19.9246956  84.2755177  71.5338804  22.7147015  75.6027251
  71.3956703  22.9048611  74.6748440  71.1775023  23.4766398  76.0595302
  59.6980930  16.7005111  81.6824263  60.3380310  16.5593870  80.9847226
  58.8658461  16.4139624  81.3062865  71.5608184  24.7823542  80.6138522
  71.9944691  24.6898832  81.4621576  72.2739765  24.7581043  79.9758538
  60.4741234  26.0007541  77.7959255  61.2681833  25.5057861  77.5941830
  59.7632927  25.4725404  77.4326961  65.2936079  28.3825637  82.1471623
  65.3473101  28.9516573  82.9149339  64.4250860  28.5527522  81.7825660
  56.7823998  20.1450623  73.8719008  55.8521586  20.0835078  74.0888970
  56.8781470  19.6226575  73.0755649  56.7009547  16.6705436  76.4597249
  56.9616364  17.5850769  76.3506410  57.5226719  16.2029878  76.6093862
  58.1734472  18.0843193  83.6296074  58.8457526  17.8760555  82.9808723
  57.3464259  17.8865279  83.1901306  72.4223733  24.8247243  83.1471408
  72.6159624  25.7293054  83.3930682  72.3224352  24.3654662  83.9809993
  64.0760044  14.7105134  85.6461735  63.4287959  15.4095083  85.5526211
  64.8461060  15.1441278  86.0137983  67.4838842  24.9753986  88.7212288
  67.3324349  24.7464538  87.8042372  67.4743522  25.9324587  88.7343633
  64.2524179  22.5485899  83.7058555  65.1816239  22.6997058  83.5327522
  63.8315209  22.6369919  82.8507201  63.0512510  26.5736563  81.4757092
  62.9123596  26.2055347  82.3483030  62.2627107  27.0884202  81.3041050
  63.6460662  31.6745659  72.8182629  63.8212418  31.2033703  73.6328251
  62.9593450  32.3011426  73.0463889  64.6017725  25.9518166  78.8645930
  64.2667558  25.9118936  79.7603580  64.1021671  25.2862882  78.3916340
  58.5761969  21.3585796  84.3898511  58.4381767  20.6266035  84.9910050
  59.4866893  21.2694696  84.1082699  67.5376917  23.2974200  69.1382990
  66.9206088  22.5721028  69.0416042  67.0693406  24.0583560  68.7950064
  61.2044270  21.0705755  83.8782191  61.9143889  20.4298947  83.8368809
  61.1613578  21.3218650  84.8008372  69.1931049  28.0073108  86.7988770
  69.1343595  27.3232329  86.1319353  69.5950567  28.7492098  86.3469396
  59.9173204  18.0570973  85.6977830  59.3810561  17.6061711  86.3499427
  59.3289913  18.1916882  84.9548295  58.2121748  34.8235022  79.5922489
  58.4518346  35.4553546  80.2701507  57.3690944  34.4723062  79.8787848
  59.3275463  17.5159624  68.2604294  58.4504929  17.3948425  67.8966541
  59.8033216  16.7245703  68.0083183  69.1948456  25.9712692  85.0302750
  68.3075235  25.6338614  85.1529149  69.7647007  25.2395724  85.2671515
  50.8477603  22.3036784  78.3545801  51.5348643  21.9898514  77.7666816
  50.6925732  23.2078149  78.0813052  55.6512325  17.1926981  82.7830825
  55.5670514  16.5852650  82.0481235  54.8295032  17.6835999  82.7840321
  62.7249609  30.6314145  81.9963993  62.6519781  31.4369116  82.5083297
  62.2827003  30.8306110  81.1712014  62.5139389  29.8685915  75.5066814
  61.7306911  30.4107595  75.6005039  63.2132134  30.3859894  75.9061056
  65.8236039  15.6780544  78.1501020  66.3204739  14.9250506  77.8302090
  65.0523021  15.7144861  77.5844229  73.6765797  21.3820910  79.7919311
  73.6655673  22.2645625  79.4213244  72.8083176  21.0292461  79.5973848
  65.1848293  30.5300979  84.1522152  65.8976265  31.1648444  84.0798053
  64.6938322  30.6264845  83.3362153  66.9065820  24.4352231  75.7239443
  65.9722099  24.5553694  75.5544148  67.0842488  23.5324698  75.4599453
  62.4071008  17.8197927  77.8772704  62.0368795  17.2668968  78.5653610
  62.9030100  17.2156061  77.3247704  70.2938371  20.2769551  76.2589477
  70.7598823  21.1097542  76.1849780  70.7445872  19.8114532  76.9634736
  60.2360207  28.2795422  84.9727722  60.9369666  28.9131905  85.1257117
  59.7655322  28.6210154  84.2123362  68.3614602  26.6213372  73.2575629
  68.6374446  26.5069967  74.1669503  67.4919101  26.2230857  73.2187802
  68.2655034  12.6450138  80.2980379  67.3518114  12.8754364  80.4662586
  68.6948135  12.7288582  81.1494411  68.0361492  20.8340030  82.7980273
  67.3832943  21.0815937  82.1432725  68.4141872  20.0204168  82.4642750
  64.9968666  30.8699723  76.9008443  65.1791061  30.0521379  77.3636195
  65.8201652  31.0867415  76.4633333  65.3310832  29.7967908  74.1623491
  65.8598598  29.2860363  73.5493654  65.5939051  29.4810438  75.0269025
  64.0849066  21.5759841  89.2846310  63.4089703  21.4753970  89.9548685
  64.9076699  21.4199054  89.7482307  55.8327925  27.8131777  81.9058825
  56.4181361  27.0675465  82.0386729  55.6352763  28.1235734  82.7895489
  58.6866580  30.8483025  76.9221267  58.0176955  31.3329152  76.4385307
  58.5479449  31.0952245  77.8364646  50.4245579  20.3837377  80.6263268
  50.4629679  19.8500968  81.4200386  49.9185872  19.8572583  80.0074245
  62.8271848  32.8826768  83.5203926  63.3790156  33.0458390  84.2853011
  63.1678042  33.4731206  82.8483951  57.8036342  15.2301918  84.1225810
  57.8677668  16.0916749  83.7103208  57.7403462  14.6175920  83.3898169
  57.2788614  17.3025050  87.7698845  57.9060653  16.9202128  88.3836369
  56.4216533  17.0839252  88.1354537  67.6782723  27.7088026  89.3752580
  68.2222627  28.3217984  88.8807535  67.0969568  28.2667604  89.8919593
  54.0554157  19.1101480  73.7017200  54.3507598  18.2012158  73.6484253
  53.1542193  19.0889219  73.3798202  65.9640236  30.8308744  80.5067608
  65.8391375  30.0298483  79.9978553  66.6219327  31.3254937  80.0181578
  57.5848404  17.1857476  79.6844748  56.8634990  17.7993444  79.5452221
  58.3741660  17.7215241  79.6061394  68.0275144  28.6317764  82.1347158
  67.0805480  28.5123115  82.0625485  68.3757917  27.7440262  82.2173419
  60.3874717  14.5211903  85.9585400  60.9109119  14.7674199  86.7211709
  60.1687051  15.3531937  85.5388537  55.7841998  16.7915577  73.8256525
  55.4554705  15.9112956  73.6431631  56.1381369  16.7363246  74.7132914
  65.0321577  28.4270480  78.3351510  64.8846540  27.4987187  78.5159080
  65.8575071  28.4490571  77.8508586  58.8983822  17.0788547  74.1932002
  59.2379894  17.6074468  73.4710611  59.3455942  17.4168953  74.9690569
  68.6355699  29.2499039  79.4216383  69.5602247  29.0441900  79.2840834
  68.4671003  29.0015440  80.3305725  61.5927262  15.4625598  83.6435070
  61.2524083  14.6633411  84.0455750  60.8866269  15.7627309  83.0711904
  62.2443734  12.5474910  82.0962393  63.0669804  12.0735388  81.9741284
  62.4881798  13.3265394  82.5961080  60.8851969  15.5763169  72.3925295
  61.6060331  15.9544421  71.8889012  60.2617273  16.2952045  72.4960273
  65.0283092  16.2808318  73.3283628  65.2446706  17.1632955  73.0272456
  64.5477159  15.8894531  72.5989269  59.7682313  19.2394031  79.9054372
  59.6226894  19.5534334  80.7978654  59.2907517  19.8578931  79.3525271
  61.6278696  16.2296579  79.9535262  61.6140265  15.3337672  79.6167560
  62.3451124  16.2367243  80.5873548  63.4804827  16.6633919  81.9988389
  63.2222604  17.5850990  81.9972720  62.9489867  16.2664354  82.6888853
  68.4251015  29.7684706  74.7778474  68.5987893  29.2031129  74.0252327
  68.9179907  30.5685601  74.5957964  54.2427975  21.7799375  82.8442033
  53.6981443  22.5559183  82.9762308  55.1207325  22.1270180  82.6861155
  61.0315592  15.1110959  75.2222832  61.1531503  14.1827605  75.4213719
  60.7417634  15.1249645  74.3101147  63.9006782  12.7965870  78.3589552
  63.9228479  12.8605203  77.4041531  64.3174841  11.9570378  78.5530058
  74.2790407  22.5321129  76.3968774  74.7221553  21.7828454  75.9987897
  73.4016917  22.5231265  76.0142506  69.4126188  29.0851471  71.8775373
  70.1077093  29.7058163  72.0962687  69.7549338  28.2346822  72.1527751
  55.0293997  20.9069271  85.7372190  54.2875733  21.0551907  86.3236821
  54.7086741  21.1677537  84.8738940  71.3117611  26.5351176  73.4062704
  71.8368935  26.8738449  72.6812024  71.2239964  25.5998191  73.2225838
  62.9737660  30.4485250  85.5352580  63.2824786  30.2034396  86.4075280
  63.7713142  30.6531888  85.0471450  62.9958272  32.6023159  77.7657957
  62.5563262  32.1099538  78.4590813  63.7466389  32.0596127  77.5250032
  55.4750611  28.7934700  77.7682585  56.3008631  28.4938472  77.3881228
  55.1244663  28.0242323  78.2172373  60.4432144  28.1461168  79.8380258
  59.8212153  27.4831873  79.5382486  61.1137011  28.1722300  79.1553906
  53.6759216  26.7121027  78.7271518  52.8391124  26.2843201  78.5455520
  53.6482861  26.9053470  79.6642310  60.5156671  16.6242956  89.4312764
  60.5644827  17.5005079  89.0490534  61.0579186  16.0820350  88.8584408
  71.0011517  27.1684080  88.7113901  70.2107061  27.1508219  88.1718401
  70.7644872  27.7072373  89.4662938  71.1209392  24.0176546  86.0246630
  71.1707397  23.8526554  86.9662153  71.0123315  23.1503805  85.6344511
  60.0045651  26.6965092  73.3138719  60.1533771  27.3800556  72.6605392
  60.8112094  26.6770182  73.8288175  68.4113155  20.0007474  87.3405937
  69.3123017  19.8613939  87.0489935  68.4861129  20.1661929  88.2804114
  62.7455960  17.3774329  86.1859123  61.8759269  17.6707895  85.9141712
  62.9815440  17.9614774  86.9066387  72.6227589  26.4373488  86.2688652
  72.3312397  26.8003468  87.1052113  72.0099720  25.7240496  86.0901984
  73.8223271  24.0026367  78.7891222  74.6570163  24.4416171  78.9528782
  73.9582400  23.5265021  77.9699468  70.8714777  21.5606102  84.7368710
  71.3468899  21.7533749  83.9287561  69.9480343  21.6165288  84.4912093
  57.7598284  22.7230269  74.3199788  57.5144326  21.8192599  74.5179998
  57.9294198  22.7247420  73.3779266  65.4494994  13.5953946  83.7024543
  65.9676938  14.3314973  83.3771032  65.0950126  13.9017939  84.5371303
  57.0293931  18.4558627  71.8185949  56.3363176  18.5302982  71.1625985
  56.7845683  17.6918971  72.3407466  65.7007588  10.0154228  79.2225440
  65.9809342   9.3477417  79.8485867  66.4858195  10.2083324  78.7100104
  63.5041056  29.1913222  70.7850466  62.9315023  29.8103409  70.3320938
  64.0773850  29.7412584  71.3190388  69.5716446  18.4371862  82.9697015
  70.5233869  18.5369960  82.9909239  69.4019897  17.6450131  83.4795100
  67.5930826  15.5227446  83.1556416  66.9980758  15.8032458  82.4602905
  67.3080522  16.0121346  83.9273157  66.7238316  29.4750372  71.9159049
  67.6568989  29.4095934  72.1191924  66.6361529  30.3106639  71.4573581
  69.3526333  28.7916243  68.8762996  69.2739964  28.4576106  69.7698754
  70.1736000  29.2838011  68.8754469  72.0504524  21.6577982  82.0839315
  72.0180844  20.7193983  82.2698999  72.6605148  21.7362019  81.3505140
  63.8887855  20.5274035  68.1266519  64.8346960  20.3980243  68.1954937
  63.5102100  19.7888697  68.6035947  72.1999012  18.4489025  82.1297598
  71.6838061  17.6647482  81.9427527  73.0838961  18.1207742  82.2944117
  69.8609739  12.1930041  78.0893411  69.6634561  11.8845129  78.9736743
  70.4709445  12.9191680  78.2191341  77.8681074  22.7193989  81.2245352
  78.5984462  22.4579277  81.7853055  77.2588019  21.9822711  81.2647420
  75.9496371  20.8601851  81.8219803  75.2229535  20.7257816  81.2136294
  75.5343658  21.1678680  82.6276521  63.7726547  24.5791781  89.5867176
  64.6929557  24.7570380  89.7807222  63.7376130  23.6347826  89.4346875
  62.0730772  18.4524011  68.0621404  61.1662227  18.1557124  68.1384118
  62.3506753  18.1553829  67.1955690  52.9908712  19.7730375  78.5120450
  52.6711497  18.9195683  78.2194824  52.4442141  19.9878953  79.2678418
  56.7688620  22.4892816  82.2289957  56.9874630  23.4209924  82.2477991
  57.1814394  22.1300790  83.0144761  63.6892838  12.9960901  74.2165645
  62.8793566  12.6507986  74.5920891  64.3777255  12.6868445  74.8053257
  65.6183386  12.0738948  75.8389942  66.1714425  12.4934401  76.4979965
  65.8553472  11.1474696  75.8812898  61.6416485  18.0626022  91.6192706
  61.5413212  19.0120378  91.5504797  61.4238027  17.7344260  90.7468776
  60.8429557  15.3110947  68.2033383  61.7048721  15.6365845  68.4629201
  61.0279901  14.5242442  67.6906449  52.8596972  23.3933286  80.4813572
  52.1660444  22.9787239  79.9683526  53.6069963  23.4353823  79.8846991
  68.9962193  14.1839473  75.3468606  68.4160862  14.8424277  74.9646659
  68.7298126  13.3616818  74.9356024  67.4465759  13.5844531  77.5489927
  67.9465538  13.6961065  76.7404245  68.0901367  13.2805584  78.1890735
  61.5047755  21.4923160  90.4357768  61.0214837  22.2923520  90.6421657
  61.5908694  21.5031105  89.4825212  54.7733715  23.3251540  78.3579587
  54.7504403  23.4239227  77.4061470  55.0834351  24.1716691  78.6796753
  57.4321093  25.3827695  82.4726201  58.3864346  25.3511637  82.4056133
  57.2333616  24.9218319  83.2876427  58.0220475  23.9528811  85.0396999
  58.8413364  24.4472890  85.0631836  58.2957283  23.0360779  85.0114567
  67.7787071  16.3439563  74.4024955  66.8912926  16.6289214  74.1845149
  68.1941060  16.1833327  73.5552231  71.1301607  16.3686084  78.1179294
  71.9061997  16.8582537  78.3903911  70.4049741  16.7944139  78.5751163
  73.5674166  17.0813704  79.1753234  74.1618657  16.8409440  78.4646543
  73.6400750  16.3620834  79.8026771  55.7871322  30.9247315  79.4896399
  55.6525789  30.1647715  78.9234397  55.3703384  31.6488214  79.0225188
  66.9230285  26.1084238  68.4972975  67.6266135  26.3134241  69.1130630
  66.1992933  26.6761000  68.7622058  67.7528095  21.8594099  74.6175245
  67.6963296  22.3162651  73.7782877  68.3056437  21.0984784  74.4398087
  71.5632901  17.6483831  75.4425364  71.3069835  17.2480467  76.2733572
  70.9385769  18.3627625  75.3175503  75.8745239  20.3879904  77.9496656
  75.3144797  20.4573094  78.7228218  75.2688742  20.2120889  77.2296152
  58.9440447  31.8216632  79.7014842  58.8272832  32.7662064  79.5993532
  58.1232894  31.5190193  80.0900641  68.8316982  26.5466767  70.5471435
  69.6662586  26.1147966  70.3648909  68.6701325  26.3748781  71.4748329
  68.4862874  23.0498881  71.9127774  68.4311678  22.8843152  70.9716218
  67.8608929  23.7574914  72.0689964  53.2755389  18.2866945  85.7389196
  53.9214253  17.7765899  86.2276421  53.0672540  19.0235627  86.3132621
  65.8008781  25.3547792  91.2381337  66.6699941  25.5288445  90.8767972
  65.3215533  26.1742209  91.1157066  61.7959000  12.5506990  71.4913092
  61.7837669  13.4948830  71.6481363  62.6882421  12.3677135  71.1972553
  59.9694962  32.4744893  82.9170770  60.8722208  32.5068504  83.2337265
  59.7432332  31.5445344  82.9317106  61.7248564  31.2275880  79.5780849
  60.7744195  31.2277742  79.4645221  62.0281050  30.4808615  79.0616884
  65.6111119   9.1449766  75.7459029  64.8443515   8.5908253  75.8915711
  66.0221824   9.2171635  76.6073181  57.6152880  15.4334562  89.8364210
  58.4784342  15.0771367  90.0467535  57.0418291  15.0948457  90.5239615
  77.4601257  37.0636418  80.6426611  78.0979667  36.9443166  79.9389951
  77.3422100  38.0117262  80.7014563  74.2690963  37.0163847  80.5788136
  73.9309475  36.9004911  79.6908671  75.1380732  36.6155012  80.5589142
  70.1277779  38.8699323  76.5685027  69.5642644  38.7789260  75.8001315
  70.0130174  38.0499227  77.0487519  74.7510746  38.1698698  86.5374342
  74.7399387  37.7751497  85.6654845  74.9131386  37.4364771  87.1308113
  67.6742211  40.3650515  79.4069247  68.4663503  40.0241339  78.9915547
  67.9138861  40.4745490  80.3271401  75.7077338  42.5370291  71.8799492
  75.0565318  43.1224371  71.4933506  76.5021701  43.0676486  71.9394529
  69.6332965  39.6259428  72.2786626  70.4063841  39.0788415  72.1399502
  69.9858364  40.4903677  72.4901088  71.4718007  40.9535810  85.4853526
  71.1807873  41.8581441  85.3700192  72.1074992  40.9952338  86.1997595
  72.3974214  38.3312659  82.0754885  72.9937787  38.1068681  81.3611848
  72.4549186  37.5897404  82.6780333  71.9699243  35.7852094  69.9105076
  72.2224763  35.2633615  69.1488539  71.0323802  35.6218239  70.0131760
  77.0142526  34.7887872  77.7179819  77.8005615  34.3707295  77.3670236
  77.2781230  35.6933964  77.8861468  77.1852603  40.2260723  72.4168476
  76.5498436  40.2995349  73.1289381  76.8550009  40.8154321  71.7387555
  82.4150953  34.7263105  78.6212798  83.1476125  34.1562322  78.8550627
  81.6590308  34.3384706  79.0619303  71.6895531  37.6880200  72.1129451
  71.5731790  37.0125103  72.7810535  71.7997791  37.2012574  71.2961604
  74.0327072  37.1490347  75.8176140  73.6685280  36.6220968  76.5289062
  74.8894188  36.7588816  75.6442626  79.9376373  28.4384680  83.0807406
  79.6059698  29.3080091  82.8568621  79.3421986  28.1220964  83.7601437
  73.6732559  32.1780247  70.8137489  73.8406962  33.0460483  71.1807960
  73.4829728  32.3407528  69.8898778  76.4307893  40.6397226  82.4803319
  76.1308616  41.5422264  82.3719126  76.0858952  40.3729409  83.3324472
  69.8820374  37.0911022  78.5140024  68.9570871  36.9587237  78.7217715
  70.1304787  37.8705242  79.0109966  79.8305036  33.1579766  80.1600757
  78.9221914  33.0895174  79.8659517  79.7792632  33.6351711  80.9882582
  73.6521780  34.6337904  71.7984156  73.5321405  35.0794955  72.6369636
  72.9574369  34.9823222  71.2397694  67.2429185  36.7344296  79.3483813
  67.3721566  36.9878775  80.2623224  66.5626636  37.3272004  79.0288468
  71.4128672  47.4041546  75.4474287  71.3352702  48.3549371  75.5262767
  70.8090316  47.0587418  76.1049213  73.9045902  34.5769411  88.1035654
  73.1279236  35.1363331  88.0938518  74.5436465  35.0626194  88.6250524
  81.6966683  31.3596204  81.9378630  81.0541063  31.6528737  81.2918425
  81.1921611  31.2449124  82.7431827  79.3506846  35.1059377  72.6264490
  80.2624703  35.3386764  72.4512187  78.8416493  35.6896422  72.0639568
  72.1592274  37.3854865  87.6653621  72.9006959  37.9239909  87.3888444
  71.4529260  38.0121153  87.8225173  77.6347614  39.5284005  86.2625782
  78.0430970  39.0866416  85.5180415  76.9124876  38.9536633  86.5159975
  73.9878684  34.4656612  83.6359339  74.8339879  34.8896025  83.7793988
  73.9277322  33.8090236  84.3297902  77.9576429  40.0885196  80.0178071
  77.3285291  40.2530910  79.3154139  77.5702091  40.5026805  80.7889035
  81.8365661  41.0239634  77.3722435  81.1516699  41.4038535  76.8219468
  81.9209510  41.6334960  78.1054383  77.1378129  32.1260980  85.2940513
  76.8939061  32.8803041  84.7574789  77.4138060  32.5046328  86.1287760
  79.0916592  38.6699593  83.9717778  79.3033487  39.3131353  83.2952160
  79.0446340  37.8361909  83.5039709  76.6942821  31.2817413  80.8754351
  75.8327300  31.5798667  81.1671088  76.7205256  31.4987812  79.9435383
  73.5104391  39.8259604  77.2828156  73.9742736  40.1047307  76.4932779
  73.2461189  38.9243048  77.1001247  70.4028472  39.3731085  80.2207920
  70.9729829  39.8018354  79.5825404  70.9936584  39.0913670  80.9192105
  72.4473277  35.9482756  74.0917721  73.1497320  36.4003800  74.5591648
  72.1153905  35.3066575  74.7197615  70.8953638  34.5394513  88.4668931
  70.2652299  35.2210794  88.7004328  70.7889726  34.4277594  87.5222069
  66.1898611  34.2066309  79.3934855  65.3997665  34.4623837  78.9174966
  66.6809858  35.0214647  79.4986896  80.2062420  41.5471548  82.1440136
  81.0279864  41.1451735  81.8622817  80.2024823  41.4439782  83.0956252
  68.1413356  34.5710888  76.3518332  67.3444519  34.6829582  76.8701827
  67.9138948  34.9097540  75.4859222  73.9719024  41.0955591  84.3000846
  74.0363456  41.5575999  85.1359018  73.2629948  40.4652956  84.4283156
  64.4736314  34.4596799  81.8249846  64.7244352  35.3443809  82.0907422
  65.0095862  34.2801401  81.0524938  88.2968413  37.8910297  78.4925107
  87.5432122  37.3217695  78.3369112  88.4315954  37.8572961  79.4395742
  73.6867041  42.7623699  74.1679827  73.5512716  43.6075235  74.5964674
  74.2276854  42.9642977  73.4045760  70.1734381  28.8415279  90.8294182
  69.7801326  28.2881477  91.5041826  70.9900521  29.1525857  91.2200699
  67.1396439  40.2799137  74.7407752  67.6520959  41.0742387  74.8913316
  67.7919152  39.5825427  74.6741353  68.9491323  43.3964893  76.8230505
  69.1257952  44.3182858  76.6351489  69.7448157  43.0823312  77.2524885
  73.0902342  30.2573158  88.4214438  73.8312055  30.8580311  88.3418901
  73.3220265  29.5150796  87.8632481  68.2343680  35.4429525  86.6992668
  68.1197195  34.5414782  86.9999767  67.3788198  35.6893222  86.3477485
  75.3135518  43.3847265  88.2980169  74.8699372  42.5983644  87.9801073
  75.9752731  43.5726416  87.6324059  70.0722639  44.9143067  82.8240847
  70.6230064  44.7860130  82.0517841  69.2334115  45.2137956  82.4735740
  77.4116756  43.6650065  86.3261570  77.3935231  44.4858946  85.8341839
  78.3336676  43.5404141  86.5511711  73.8689810  41.1794195  87.1685078
  74.4018147  40.4182483  86.9384386  73.3403891  40.8867847  87.9109233
  77.0359505  26.2854261  82.6978720  76.6923774  27.1755902  82.6217831
  77.4038467  26.0955918  81.8348305  65.1045355  38.6087791  75.5167322
  65.9420577  39.0184800  75.3001030  65.2823623  37.6687233  75.4867516
  77.0009788  36.2762872  71.2051155  76.4856411  37.0467476  71.4439543
  76.7287096  35.6028008  71.8284217  74.5856899  31.1212573  76.2636394
  73.7298495  30.7319423  76.0842032  74.9983850  31.2004533  75.4036179
  76.1156045  28.6558916  80.6627953  75.6120841  28.6189051  79.8495759
  76.4086652  29.5651659  80.7224610  72.3598931  28.7397646  79.6694135
  73.2251928  28.5440454  79.3100025  72.4276440  28.5107997  80.5963492
  81.9744062  39.0295226  73.1404329  81.1973504  38.6906386  72.6959491
  82.6535543  39.0347850  72.4659294  76.7896091  34.1489964  73.0310936
  76.4846226  34.4636113  73.8821080  77.7426533  34.2271384  73.0738269
  75.2342523  40.3080187  74.6803890  74.7063884  39.5732947  74.3677128
  74.7330025  41.0854864  74.4343859  80.2135369  38.5029208  79.7970937
  79.5559043  39.1928469  79.8851065  81.0175768  38.8925640  80.1404923
  69.9661250  30.9699854  77.0410502  70.5405002  30.7475035  76.3083695
  70.5532233  31.0388548  77.7939103  79.0240827  36.8573580  77.8474878
  79.5372709  37.4903572  78.3496588  79.6742051  36.2574776  77.4818238
  70.2930837  33.0004315  71.0606387  69.4568150  33.3379001  71.3815662
  70.1535607  32.8653294  70.1233524  72.2683918  27.8441102  75.7685571
  71.6148330  27.5290120  75.1442186  72.2264392  27.2216843  76.4945394
  73.3795123  38.1260398  67.6838863  72.4722185  37.8949651  67.8830012
  73.8766155  37.3298017  67.8712845  76.2863202  46.8357905  70.6035550
  75.6124900  47.1389601  71.2120507  76.6729024  47.6386985  70.2541007
  75.5021658  34.3323036  80.0933219  74.5844220  34.5537983  79.9354907
  75.9181802  34.4069346  79.2344926  76.2856706  35.7314452  75.2235899
  77.0328525  36.2435849  74.9143021  76.5548296  35.4098504  76.0840293
  74.5583356  38.2272992  72.2062853  73.6494575  37.9432025  72.3035323
  74.5878440  38.6472071  71.3466160  79.7902624  41.8379582  75.9754021
  79.3364951  40.9970492  76.0319212  79.1596590  42.4740980  76.3128801
  78.7335543  32.7671568  77.2054688  77.9958300  32.2548954  77.5364931
  78.9862317  32.3271950  76.3937965  78.2335563  43.6756079  76.9103839
  78.5258537  44.2361136  76.1916205  78.7434183  43.9684640  77.6656998
  78.8347171  25.5447820  77.7996458  79.1406047  24.6845183  77.5122373
  79.5599775  26.1365440  77.5995452  65.1271527  35.9478507  76.1878056
  64.9295926  35.3547867  75.4629122  64.5718191  35.6430717  76.9053994
  73.1068250  35.8401613  78.3072649  73.1616860  34.8875449  78.2315125
  72.2959452  35.9961052  78.7913947  74.2559444  39.7681736  69.5450932
  73.8178874  39.0517595  69.0856569  74.9969885  39.9957851  68.9836023
  71.0460610  34.4578673  76.0663028  70.2328476  34.7572843  76.4728220
  71.5419604  34.0634362  76.7837510  73.1969188  44.4536430  77.9997292
  73.1545367  44.6797276  77.0705824  74.1131887  44.2199804  78.1483094
  76.6434822  34.9220497  84.8977922  76.9984210  35.1491970  85.7572387
  77.2906953  35.2538874  84.2755177  82.3732559  38.0438933  75.6027251
  82.2350457  38.2340529  74.6748440  82.0168778  38.8058316  76.0595302
  70.5374685  32.0297028  81.6824263  71.1774064  31.8885787  80.9847226
  69.7052215  31.7431542  81.3062865  82.4001938  40.1115460  80.6138522
  82.8338445  40.0190749  81.4621576  83.1133519  40.0872961  79.9758538
  71.3134989  41.3299459  77.7959255  72.1075587  40.8349779  77.5941830
  70.6026681  40.8017322  77.4326961  76.1329833  43.7117554  82.1471623
  76.1866856  44.2808491  82.9149339  75.2644615  43.8819439  81.7825660
  67.6217752  35.4742540  73.8719008  66.6915340  35.4126996  74.0888970
  67.7175224  34.9518493  73.0755649  67.5403301  31.9997353  76.4597249
  67.8010119  32.9142686  76.3506410  68.3620474  31.5321796  76.6093862
  69.0128227  33.4135110  83.6296074  69.6851280  33.2052473  82.9808723
  68.1858013  33.2157196  83.1901306  83.2617488  40.1539161  83.1471408
  83.4553378  41.0584971  83.3930682  83.1618106  39.6946580  83.9809993
  74.9153799  30.0397051  85.6461735  74.2681714  30.7387001  85.5526211
  75.6854814  30.4733195  86.0137983  78.3232597  40.3045904  88.7212288
  78.1718103  40.0756455  87.8042372  78.3137276  41.2616505  88.7343633
  75.0917933  37.8777816  83.7058555  76.0209993  38.0288976  83.5327522
  74.6708963  37.9661837  82.8507201  73.8906265  41.9028481  81.4757092
  73.7517351  41.5347265  82.3483030  73.1020861  42.4176120  81.3041050
  74.4854417  47.0037577  72.8182629  74.6606172  46.5325620  73.6328251
  73.7987205  47.6303343  73.0463889  75.4411480  41.2810083  78.8645930
  75.1061313  41.2410853  79.7603580  74.9415426  40.6154799  78.3916340
  69.4155724  36.6877713  84.3898511  69.2775522  35.9557952  84.9910050
  70.3260647  36.5986613  84.1082699  78.3770672  38.6266118  69.1382990
  77.7599842  37.9012946  69.0416042  77.9087160  39.3875478  68.7950064
  72.0438025  36.3997673  83.8782191  72.7537643  35.7590865  83.8368809
  72.0007333  36.6510568  84.8008372  80.0324803  43.3365026  86.7988770
  79.9737349  42.6524246  86.1319353  80.4344322  44.0784016  86.3469396
  70.7566959  33.3862891  85.6977830  70.2204316  32.9353629  86.3499427
  70.1683667  33.5208799  84.9548295  69.0515502  50.1526940  79.5922489
  69.2912100  50.7845464  80.2701507  68.2084699  49.8014980  79.8787848
  70.1669218  32.8451542  68.2604294  69.2898684  32.7240343  67.8966541
  70.6426971  32.0537620  68.0083183  80.0342211  41.3004610  85.0302750
  79.1468989  40.9630532  85.1529149  80.6040762  40.5687641  85.2671515
  61.6871358  37.6328702  78.3545801  62.3742398  37.3190432  77.7666816
  61.5319486  38.5370066  78.0813052  66.4906080  32.5218898  82.7830825
  66.4064269  31.9144568  82.0481235  65.6688786  33.0127917  82.7840321
  73.5643364  45.9606062  81.9963993  73.4913535  46.7661034  82.5083297
  73.1220757  46.1598028  81.1712014  73.3533144  45.1977832  75.5066814
  72.5700665  45.7399513  75.6005039  74.0525889  45.7151812  75.9061056
  76.6629794  31.0072462  78.1501020  77.1598493  30.2542424  77.8302090
  75.8916775  31.0436778  77.5844229  84.5159551  36.7112827  79.7919311
  84.5049427  37.5937543  79.4213244  83.6476931  36.3584378  79.5973848
  76.0242047  45.8592896  84.1522152  76.7370020  46.4940361  84.0798053
  75.5332076  45.9556762  83.3362153  77.7459574  39.7644149  75.7239443
  76.8115853  39.8845612  75.5544148  77.9236243  38.8616616  75.4599453
  73.2464762  33.1489845  77.8772704  72.8762550  32.5960885  78.5653610
  73.7423855  32.5447978  77.3247704  81.1332126  35.6061468  76.2589477
  81.5992578  36.4389460  76.1849780  81.5839626  35.1406450  76.9634736
  71.0753961  43.6087340  84.9727722  71.7763420  44.2423823  85.1257117
  70.6049076  43.9502071  84.2123362  79.2008357  41.9505290  73.2575629
  79.4768201  41.8361884  74.1669503  78.3312856  41.5522774  73.2187802
  79.1048788  27.9742055  80.2980379  78.1911868  28.2046282  80.4662586
  79.5341890  28.0580499  81.1494411  78.8755247  36.1631947  82.7980273
  78.2226697  36.4107855  82.1432725  79.2535627  35.3496085  82.4642750
  75.8362421  46.1991640  76.9008443  76.0184815  45.3813296  77.3636195
  76.6595407  46.4159333  76.4633333  76.1704586  45.1259826  74.1623491
  76.6992353  44.6152280  73.5493654  76.4332806  44.8102356  75.0269025
  74.9242820  36.9051758  89.2846310  74.2483457  36.8045888  89.9548685
  75.7470454  36.7490972  89.7482307  66.6721679  43.1423695  81.9058825
  67.2575116  42.3967383  82.0386729  66.4746518  43.4527652  82.7895489
  69.5260334  46.1774942  76.9221267  68.8570710  46.6621070  76.4385307
  69.3873204  46.4244163  77.8364646  61.2639334  35.7129295  80.6263268
  61.3023433  35.1792886  81.4200386  60.7579627  35.1864501  80.0074245
  73.6665603  48.2118686  83.5203926  74.2183911  48.3750307  84.2853011
  74.0071796  48.8023124  82.8483951  68.6430096  30.5593836  84.1225810
  68.7071423  31.4208667  83.7103208  68.5797216  29.9467837  83.3898169
  68.1182369  32.6316968  87.7698845  68.7454407  32.2494045  88.3836369
  67.2610287  32.4131170  88.1354537  78.5176477  43.0379943  89.3752580
  79.0616381  43.6509902  88.8807535  77.9363322  43.5959522  89.8919593
  64.8947911  34.4393397  73.7017200  65.1901352  33.5304076  73.6484253
  63.9935947  34.4181137  73.3798202  76.8033990  46.1600661  80.5067608
  76.6785130  45.3590401  79.9978553  77.4613081  46.6546855  80.0181578
  68.4242158  32.5149394  79.6844748  67.7028744  33.1285362  79.5452221
  69.2135414  33.0507159  79.6061394  78.8668899  43.9609681  82.1347158
  77.9199234  43.8415033  82.0625485  79.2151672  43.0732179  82.2173419
  71.2268472  29.8503820  85.9585400  71.7502874  30.0966117  86.7211709
  71.0080805  30.6823855  85.5388537  66.6235753  32.1207495  73.8256525
  66.2948459  31.2404874  73.6431631  66.9775124  32.0655164  74.7132914
  75.8715332  43.7562398  78.3351510  75.7240294  42.8279105  78.5159080
  76.6968825  43.7782488  77.8508586  69.7377576  32.4080465  74.1932002
  70.0773649  32.9366386  73.4710611  70.1849697  32.7460871  74.9690569
  79.4749454  44.5790956  79.4216383  80.3996001  44.3733818  79.2840834
  79.3064757  44.3307358  80.3305725  72.4321017  30.7917515  83.6435070
  72.0917837  29.9925328  84.0455750  71.7260023  31.0919226  83.0711904
  73.0837489  27.8766828  82.0962393  73.9063558  27.4027306  81.9741284
  73.3275552  28.6557312  82.5961080  71.7245723  30.9055086  72.3925295
  72.4454086  31.2836339  71.8889012  71.1011027  31.6243963  72.4960273
  75.8676846  31.6100235  73.3283628  76.0840461  32.4924873  73.0272456
  75.3870913  31.2186449  72.5989269  70.6076068  34.5685948  79.9054372
  70.4620648  34.8826252  80.7978654  70.1301271  35.1870849  79.3525271
  72.4672450  31.5588496  79.9535262  72.4534019  30.6629590  79.6167560
  73.1844879  31.5659160  80.5873548  74.3198581  31.9925837  81.9988389
  74.0616359  32.9142907  81.9972720  73.7883622  31.5956271  82.6888853
  79.2644770  45.0976624  74.7778474  79.4381647  44.5323046  74.0252327
  79.7573661  45.8977519  74.5957964  65.0821730  37.1091293  82.8442033
  64.5375198  37.8851101  82.9762308  65.9601080  37.4562097  82.6861155
  71.8709346  30.4402877  75.2222832  71.9925258  29.5119523  75.4213719
  71.5811389  30.4541563  74.3101147  74.7400537  28.1257787  78.3589552
  74.7622234  28.1897120  77.4041531  75.1568596  27.2862296  78.5530058
  85.1184161  37.8613047  76.3968774  85.5615307  37.1120372  75.9987897
  84.2410671  37.8523183  76.0142506  80.2519942  44.4143388  71.8775373
  80.9470847  45.0350081  72.0962687  80.5943093  43.5638739  72.1527751
  65.8687752  36.2361189  85.7372190  65.1269488  36.3843825  86.3236821
  65.5480496  36.4969455  84.8738940  82.1511365  41.8643094  73.4062704
  82.6762690  42.2030366  72.6812024  82.0633718  40.9290109  73.2225838
  73.8131414  45.7777167  85.5352580  74.1218541  45.5326314  86.4075280
  74.6106896  45.9823806  85.0471450  73.8352026  47.9315077  77.7657957
  73.3957017  47.4391456  78.4590813  74.5860143  47.3888045  77.5250032
  66.3144365  44.1226618  77.7682585  67.1402385  43.8230390  77.3881228
  65.9638417  43.3534240  78.2172373  71.2825898  43.4753086  79.8380258
  70.6605908  42.8123791  79.5382486  71.9530765  43.5014218  79.1553906
  64.5152970  42.0412944  78.7271518  63.6784879  41.6135119  78.5455520
  64.4876616  42.2345388  79.6642310  71.3550426  31.9534874  89.4312764
  71.4038581  32.8296997  89.0490534  71.8972940  31.4112267  88.8584408
  81.8405272  42.4975997  88.7113901  81.0500815  42.4800136  88.1718401
  81.6038626  43.0364291  89.4662938  81.9603147  39.3468464  86.0246630
  82.0101152  39.1818471  86.9662153  81.8517070  38.4795723  85.6344511
  70.8439405  42.0257009  73.3138719  70.9927526  42.7092474  72.6605392
  71.6505849  42.0062100  73.8288175  79.2506909  35.3299392  87.3405937
  80.1516772  35.1905857  87.0489935  79.3254884  35.4953847  88.2804114
  73.5849714  32.7066247  86.1859123  72.7153024  32.9999813  85.9141712
  73.8209195  33.2906692  86.9066387  83.4621343  41.7665405  86.2688652
  83.1706152  42.1295386  87.1052113  82.8493475  41.0532414  86.0901984
  84.6617026  39.3318285  78.7891222  85.4963917  39.7708089  78.9528782
  84.7976155  38.8556938  77.9699468  81.7108532  36.8898020  84.7368710
  82.1862653  37.0825666  83.9287561  80.7874097  36.9457206  84.4912093
  68.5992038  38.0522187  74.3199788  68.3538080  37.1484517  74.5179998
  68.7687953  38.0539338  73.3779266  76.2888748  28.9245863  83.7024543
  76.8070692  29.6606890  83.3771032  75.9343881  29.2309857  84.5371303
  67.8687686  33.7850545  71.8185949  67.1756931  33.8594900  71.1625985
  67.6239438  33.0210888  72.3407466  76.5401342  25.3446146  79.2225440
  76.8203096  24.6769335  79.8485867  77.3251949  25.5375242  78.7100104
  74.3434811  44.5205140  70.7850466  73.7708778  45.1395327  70.3320938
  74.9167605  45.0704502  71.3190388  80.4110201  33.7663780  82.9697015
  81.3627624  33.8661878  82.9909239  80.2413651  32.9742049  83.4795100
  78.4324580  30.8519363  83.1556416  77.8374512  31.1324376  82.4602905
  78.1474277  31.3413264  83.9273157  77.5632071  44.8042290  71.9159049
  78.4962744  44.7387852  72.1191924  77.4755283  45.6398557  71.4573581
  80.1920087  44.1208160  68.8762996  80.1133719  43.7868024  69.7698754
  81.0129754  44.6129928  68.8754469  82.8898278  36.9869900  82.0839315
  82.8574599  36.0485900  82.2698999  83.4998902  37.0653936  81.3505140
  74.7281609  35.8565953  68.1266519  75.6740714  35.7272161  68.1954937
  74.3495854  35.1180615  68.6035947  83.0392767  33.7780943  82.1297598
  82.5231816  32.9939400  81.9427527  83.9232715  33.4499660  82.2944117
  80.7003494  27.5221959  78.0893411  80.5028315  27.2137047  78.9736743
  81.3103199  28.2483598  78.2191341  88.7074828  38.0485907  81.2245352
  89.4378217  37.7871195  81.7853055  88.0981774  37.3114628  81.2647420
  86.7890125  36.1893769  81.8219803  86.0623289  36.0549734  81.2136294
  86.3737412  36.4970598  82.6276521  74.6120302  39.9083699  89.5867176
  75.5323311  40.0862298  89.7807222  74.5769885  38.9639744  89.4346875
  72.9124526  33.7815929  68.0621404  72.0055982  33.4849042  68.1384118
  73.1900507  33.4845747  67.1955690  63.8302467  35.1022292  78.5120450
  63.5105251  34.2487601  78.2194824  63.2835895  35.3170871  79.2678418
  67.6082374  37.8184733  82.2289957  67.8268384  38.7501841  82.2477991
  68.0208148  37.4592708  83.0144761  74.5286592  28.3252819  74.2165645
  73.7187321  27.9799904  74.5920891  75.2171009  28.0160362  74.8053257
  76.4577140  27.4030866  75.8389942  77.0108179  27.8226319  76.4979965
  76.6947227  26.4766614  75.8812898  72.4810240  33.3917939  91.6192706
  72.3806967  34.3412296  91.5504797  72.2631782  33.0636178  90.7468776
  71.6823311  30.6402864  68.2033383  72.5442475  30.9657763  68.4629201
  71.8673655  29.8534360  67.6906449  63.6990727  38.7225204  80.4813572
  63.0054198  38.3079157  79.9683526  64.4463718  38.7645740  79.8846991
  79.8355948  29.5131391  75.3468606  79.2554617  30.1716195  74.9646659
  79.5691880  28.6908735  74.9356024  78.2859514  28.9136448  77.5489927
  78.7859292  29.0252983  76.7404245  78.9295122  28.6097501  78.1890735
  72.3441510  36.8215078  90.4357768  71.8608591  37.6215438  90.6421657
  72.4302449  36.8323023  89.4825212  65.6127469  38.6543458  78.3579587
  65.5898157  38.7531145  77.4061470  65.9228106  39.5008609  78.6796753
  68.2714847  40.7119613  82.4726201  69.2258101  40.6803555  82.4056133
  68.0727371  40.2510236  83.2876427  68.8614229  39.2820729  85.0396999
  69.6807118  39.7764807  85.0631836  69.1351037  38.3652697  85.0114567
  78.6180826  31.6731481  74.4024955  77.7306681  31.9581132  74.1845149
  79.0334815  31.5125244  73.5552231  81.9695362  31.6978002  78.1179294
  82.7455752  32.1874455  78.3903911  81.2443496  32.1236056  78.5751163
  84.4067920  32.4105621  79.1753234  85.0012411  32.1701357  78.4646543
  84.4794504  31.6912752  79.8026771  66.6265076  46.2539232  79.4896399
  66.4919544  45.4939633  78.9234397  66.2097138  46.9780132  79.0225188
  77.7624039  41.4376156  68.4972975  78.4659889  41.6426158  69.1130630
  77.0386688  42.0052918  68.7622058  78.5921849  37.1886017  74.6175245
  78.5357051  37.6454568  73.7782877  79.1450192  36.4276702  74.4398087
  82.4026655  32.9775749  75.4425364  82.1463589  32.5772385  76.2733572
  81.7779523  33.6919543  75.3175503  86.7138993  35.7171822  77.9496656
  86.1538551  35.7865011  78.7228218  86.1082496  35.5412807  77.2296152
  69.7834202  47.1508549  79.7014842  69.6666586  48.0953982  79.5993532
  68.9626648  46.8482111  80.0900641  79.6710736  41.8758685  70.5471435
  80.5056340  41.4439883  70.3648909  79.5095079  41.7040699  71.4748329
  79.3256629  38.3790798  71.9127774  79.2705432  38.2135070  70.9716218
  78.7002684  39.0866831  72.0689964  64.1149144  33.6158863  85.7389196
  64.7608007  33.1057817  86.2276421  63.9066295  34.3527544  86.3132621
  76.6402536  40.6839710  91.2381337  77.5093695  40.8580362  90.8767972
  76.1609287  41.5034127  91.1157066  72.6352754  27.8798907  71.4913092
  72.6231424  28.8240747  71.6481363  73.5276176  27.6969053  71.1972553
  70.8088716  47.8036811  82.9170770  71.7115963  47.8360421  83.2337265
  70.5826086  46.8737262  82.9317106  72.5642318  46.5567798  79.5780849
  71.6137949  46.5569659  79.4645221  72.8674804  45.8100532  79.0616884
  76.4504874  24.4741684  75.7459029  75.6837269  23.9200171  75.8915711
  76.8615579  24.5463553  76.6073181  68.4546635  30.7626480  89.8364210
  69.3178096  30.4063285  90.0467535  67.8812045  30.4240375  90.5239615
  88.2995012  52.3928336  80.6426611  88.9373422  52.2735083  79.9389951
  88.1815854  53.3409180  80.7014563  85.1084718  52.3455764  80.5788136
  84.7703229  52.2296829  79.6908671  85.9774486  51.9446929  80.5589142
  80.9671534  54.1991241  76.5685027  80.4036399  54.1081178  75.8001315
  80.8523929  53.3791145  77.0487519  85.5904501  53.4990616  86.5374342
  85.5793142  53.1043414  85.6654845  85.7525140  52.7656689  87.1308113
  78.5135965  55.6942432  79.4069247  79.3057257  55.3533257  78.9915547
  78.7532616  55.8037407  80.3271401  86.5471092  57.8662208  71.8799492
  85.8959072  58.4516289  71.4933506  87.3415455  58.3968403  71.9394529
  80.4726719  54.9551345  72.2786626  81.2457595  54.4080333  72.1399502
  80.8252118  55.8195595  72.4901088  82.3111762  56.2827728  85.4853526
  82.0201628  57.1873359  85.3700192  82.9468746  56.3244255  86.1997595
  83.2367969  53.6604576  82.0754885  83.8331541  53.4360599  81.3611848
  83.2942940  52.9189322  82.6780333  82.8092997  51.1144012  69.9105076
  83.0618518  50.5925533  69.1488539  81.8717556  50.9510157  70.0131760
  87.8536280  50.1179790  77.7179819  88.6399369  49.6999213  77.3670236
  88.1174984  51.0225882  77.8861468  88.0246357  55.5552640  72.4168476
  87.3892190  55.6287267  73.1289381  87.6943764  56.1446239  71.7387555
  93.2544707  50.0555023  78.6212798  93.9869879  49.4854240  78.8550627
  92.4984063  49.6676624  79.0619303  82.5289286  53.0172118  72.1129451
  82.4125544  52.3417021  72.7810535  82.6391546  52.5304491  71.2961604
  84.8720827  52.4782265  75.8176140  84.5079034  51.9512886  76.5289062
  85.7287943  52.0880734  75.6442626  90.7770128  43.7676597  83.0807406
  90.4453452  44.6372008  82.8568621  90.1815741  43.4512881  83.7601437
  84.5126314  47.5072164  70.8137489  84.6800716  48.3752401  71.1807960
  84.3223483  47.6699446  69.8898778  87.2701647  55.9689143  82.4803319
  86.9702370  56.8714182  82.3719126  86.9252707  55.7021326  83.3324472
  80.7214129  52.4202940  78.5140024  79.7964625  52.2879154  78.7217715
  80.9698542  53.1997159  79.0109966  90.6698791  48.4871683  80.1600757
  89.7615668  48.4187092  79.8659517  90.6186387  48.9643628  80.9882582
  84.4915535  49.9629822  71.7984156  84.3715160  50.4086873  72.6369636
  83.7968123  50.3115140  71.2397694  78.0822940  52.0636214  79.3483813
  78.2115321  52.3170693  80.2623224  77.4020391  52.6563922  79.0288468
  82.2522427  62.7333464  75.4474287  82.1746457  63.6841289  75.5262767
  81.6484070  62.3879336  76.1049213  84.7439657  49.9061329  88.1035654
  83.9672991  50.4655249  88.0938518  85.3830220  50.3918112  88.6250524
  92.5360437  46.6888122  81.9378630  91.8934817  46.9820655  81.2918425
  92.0315366  46.5741042  82.7431827  90.1900601  50.4351295  72.6264490
  91.1018457  50.6678682  72.4512187  89.6810248  51.0188339  72.0639568
  82.9986029  52.7146782  87.6653621  83.7400713  53.2531826  87.3888444
  82.2923014  53.3413071  87.8225173  88.4741369  54.8575923  86.2625782
  88.8824725  54.4158333  85.5180415  87.7518630  54.2828550  86.5159975
  84.8272439  49.7948530  83.6359339  85.6733634  50.2187943  83.7793988
  84.7671076  49.1382154  84.3297902  88.7970183  55.4177113  80.0178071
  88.1679046  55.5822828  79.3154139  88.4095845  55.8318723  80.7889035
  92.6759415  56.3531551  77.3722435  91.9910453  56.7330453  76.8219468
  92.7603264  56.9626878  78.1054383  87.9771884  47.4552898  85.2940513
  87.7332816  48.2094958  84.7574789  88.2531814  47.8338246  86.1287760
  89.9310347  53.9991510  83.9717778  90.1427242  54.6423270  83.2952160
  89.8840095  53.1653827  83.5039709  87.5336576  46.6109331  80.8754351
  86.6721055  46.9090585  81.1671088  87.5599010  46.8279730  79.9435383
  84.3498145  55.1551522  77.2828156  84.8136491  55.4339225  76.4932779
  84.0854943  54.2534966  77.1001247  81.2422226  54.7023003  80.2207920
  81.8123583  55.1310271  79.5825404  81.8330338  54.4205588  80.9192105
  83.2867031  51.2774674  74.0917721  83.9891074  51.7295718  74.5591648
  82.9547660  50.6358493  74.7197615  81.7347393  49.8686431  88.4668931
  81.1046053  50.5502711  88.7004328  81.6283481  49.7569512  87.5222069
  77.0292365  49.5358227  79.3934855  76.2391419  49.7915755  78.9174966
  77.5203612  50.3506564  79.4986896  91.0456175  56.8763466  82.1440136
  91.8673618  56.4743653  81.8622817  91.0418578  56.7731700  83.0956252
  78.9807110  49.9002806  76.3518332  78.1838274  50.0121500  76.8701827
  78.7532703  50.2389458  75.4859222  84.8112778  56.4247509  84.3000846
  84.8757211  56.8867916  85.1359018  84.1023702  55.7944874  84.4283156
  75.3130068  49.7888717  81.8249846  75.5638107  50.6735727  82.0907422
  75.8489616  49.6093319  81.0524938  99.1362168  53.2202214  78.4925107
  98.3825876  52.6509612  78.3369112  99.2709709  53.1864879  79.4395742
  84.5260796  58.0915617  74.1679827  84.3906471  58.9367152  74.5964674
  85.0670608  58.2934894  73.4045760  81.0128135  44.1707196  90.8294182
  80.6195081  43.6173395  91.5041826  81.8294276  44.4817775  91.2200699
  77.9790193  55.6091055  74.7407752  78.4914714  56.4034305  74.8913316
  78.6312906  54.9117345  74.6741353  79.7885078  58.7256811  76.8230505
  79.9651706  59.6474776  76.6351489  80.5841911  58.4115230  77.2524885
  83.9296096  45.5865075  88.4214438  84.6705810  46.1872229  88.3418901
  84.1614019  44.8442713  87.8632481  79.0737434  50.7721443  86.6992668
  78.9590950  49.8706700  86.9999767  78.2181952  51.0185139  86.3477485
  86.1529272  58.7139183  88.2980169  85.7093126  57.9275562  87.9801073
  86.8146486  58.9018334  87.6324059  80.9116393  60.2434985  82.8240847
  81.4623818  60.1152048  82.0517841  80.0727869  60.5429874  82.4735740
  88.2510510  58.9941983  86.3261570  88.2328986  59.8150864  85.8341839
  89.1730430  58.8696058  86.5511711  84.7083564  56.5086112  87.1685078
  85.2411901  55.7474401  86.9384386  84.1797645  56.2159764  87.9109233
  87.8753259  41.6146178  82.6978720  87.5317529  42.5047820  82.6217831
  88.2432222  41.4247836  81.8348305  75.9439110  53.9379709  75.5167322
  76.7814332  54.3476717  75.3001030  76.1217378  52.9979151  75.4867516
  87.8403542  51.6054790  71.2051155  87.3250165  52.3759394  71.4439543
  87.5680851  50.9319926  71.8284217  85.4250653  46.4504490  76.2636394
  84.5692249  46.0611341  76.0842032  85.8377605  46.5296451  75.4036179
  86.9549800  43.9850834  80.6627953  86.4514595  43.9480969  79.8495759
  87.2480407  44.8943576  80.7224610  83.1992686  44.0689563  79.6694135
  84.0645682  43.8732372  79.3100025  83.2670195  43.8399915  80.5963492
  92.8137816  54.3587144  73.1404329  92.0367259  54.0198304  72.6959491
  93.4929297  54.3639767  72.4659294  87.6289845  49.4781882  73.0310936
  87.3239981  49.7928031  73.8821080  88.5820287  49.5563302  73.0738269
  86.0736277  55.6372105  74.6803890  85.5457639  54.9024865  74.3677128
  85.5723780  56.4146781  74.4343859  91.0529123  53.8321125  79.7970937
  90.3952798  54.5220387  79.8851065  91.8569522  54.2217557  80.1404923
  80.8055005  46.2991771  77.0410502  81.3798757  46.0766953  76.3083695
  81.3925987  46.3680466  77.7939103  89.8634582  52.1865498  77.8474878
  90.3766464  52.8195490  78.3496588  90.5135806  51.5866694  77.4818238
  81.1324592  48.3296232  71.0606387  80.2961904  48.6670919  71.3815662
  80.9929361  48.1945212  70.1233524  83.1077672  43.1733020  75.7685571
  82.4542085  42.8582037  75.1442186  83.0658147  42.5508761  76.4945394
  84.2188877  53.4552315  67.6838863  83.3115939  53.2241569  67.8830012
  84.7159909  52.6589934  67.8712845  87.1256956  62.1649822  70.6035550
  86.4518655  62.4681519  71.2120507  87.5122778  62.9678903  70.2541007
  86.3415413  49.6614954  80.0933219  85.4237974  49.8829901  79.9354907
  86.7575556  49.7361264  79.2344926  87.1250461  51.0606369  75.2235899
  87.8722279  51.5727767  74.9143021  87.3942050  50.7390422  76.0840293
  85.3977111  53.5564910  72.2062853  84.4888330  53.2723943  72.3035323
  85.4272195  53.9763989  71.3466160  90.6296378  57.1671500  75.9754021
  90.1758705  56.3262409  76.0319212  89.9990345  57.8032898  76.3128801
  89.5729298  48.0963486  77.2054688  88.8352054  47.5840872  77.5364931
  89.8256071  47.6563867  76.3937965  89.0729317  59.0047996  76.9103839
  89.3652292  59.5653053  76.1916205  89.5827938  59.2976557  77.6656998
  89.6740925  40.8739738  77.7996458  89.9799802  40.0137101  77.5122373
  90.3993530  41.4657358  77.5995452  75.9665281  51.2770424  76.1878056
  75.7689681  50.6839785  75.4629122  75.4111945  50.9722634  76.9053994
  83.9462005  51.1693531  78.3072649  84.0010615  50.2167367  78.2315125
  83.1353207  51.3252970  78.7913947  85.0953199  55.0973654  69.5450932
  84.6572628  54.3809513  69.0856569  85.8363639  55.3249769  68.9836023
  81.8854365  49.7870590  76.0663028  81.0722230  50.0864761  76.4728220
  82.3813359  49.3926279  76.7837510  84.0362943  59.7828347  77.9997292
  83.9939121  60.0089194  77.0705824  84.9525641  59.5491722  78.1483094
  87.4828576  50.2512415  84.8977922  87.8377964  50.4783888  85.7572387
  88.1300708  50.5830792  84.2755177  93.2126313  53.3730851  75.6027251
  93.0744212  53.5632447  74.6748440  92.8562532  54.1350234  76.0595302
  81.3768439  47.3588946  81.6824263  82.0167819  47.2177705  80.9847226
  80.5445970  47.0723459  81.3062865  93.2395693  55.4407378  80.6138522
  93.6732200  55.3482667  81.4621576  93.9527274  55.4164878  79.9758538
  82.1528743  56.6591376  77.7959255  82.9469342  56.1641696  77.5941830
  81.4420436  56.1309239  77.4326961  86.9723588  59.0409472  82.1471623
  87.0260610  59.6100408  82.9149339  86.1038369  59.2111357  81.7825660
  78.4611507  50.8034458  73.8719008  77.5309095  50.7418914  74.0888970
  78.5568979  50.2810411  73.0755649  78.3797056  47.3289271  76.4597249
  78.6403873  48.2434604  76.3506410  79.2014228  46.8613713  76.6093862
  79.8521981  48.7427028  83.6296074  80.5245035  48.5344390  82.9808723
  79.0251768  48.5449114  83.1901306  94.1011242  55.4831078  83.1471408
  94.2947133  56.3876889  83.3930682  94.0011861  55.0238498  83.9809993
  85.7547553  45.3688969  85.6461735  85.1075468  46.0678919  85.5526211
  86.5248569  45.8025113  86.0137983  89.1626351  55.6337821  88.7212288
  89.0111858  55.4048373  87.8042372  89.1531031  56.5908423  88.7343633
  85.9311688  53.2069734  83.7058555  86.8603748  53.3580894  83.5327522
  85.5102718  53.2953755  82.8507201  84.7300019  57.2320398  81.4757092
  84.5911105  56.8639183  82.3483030  83.9414616  57.7468038  81.3041050
  85.3248171  62.3329495  72.8182629  85.4999927  61.8617538  73.6328251
  84.6380959  62.9595261  73.0463889  86.2805234  56.6102001  78.8645930
  85.9455067  56.5702771  79.7603580  85.7809180  55.9446717  78.3916340
  80.2549478  52.0169631  84.3898511  80.1169276  51.2849870  84.9910050
  81.1654402  51.9278531  84.1082699  89.2164426  53.9558035  69.1382990
  88.5993597  53.2304864  69.0416042  88.7480915  54.7167396  68.7950064
  82.8831779  51.7289590  83.8782191  83.5931398  51.0882783  83.8368809
  82.8401087  51.9802485  84.8008372  90.8718558  58.6656944  86.7988770
  90.8131104  57.9816164  86.1319353  91.2738076  59.4075934  86.3469396
  81.5960713  48.7154808  85.6977830  81.0598070  48.2645547  86.3499427
  81.0077422  48.8500717  84.9548295  79.8909257  65.4818858  79.5922489
  80.1305855  66.1137382  80.2701507  79.0478453  65.1306898  79.8787848
  81.0062972  48.1743460  68.2604294  80.1292438  48.0532260  67.8966541
  81.4820725  47.3829538  68.0083183  90.8735965  56.6296528  85.0302750
  89.9862744  56.2922449  85.1529149  91.4434516  55.8979559  85.2671515
  72.5265112  52.9620619  78.3545801  73.2136152  52.6482349  77.7666816
  72.3713241  53.8661984  78.0813052  77.3299834  47.8510816  82.7830825
  77.2458023  47.2436486  82.0481235  76.5082541  48.3419834  82.7840321
  84.4037118  61.2897980  81.9963993  84.3307290  62.0952952  82.5083297
  83.9614512  61.4889946  81.1712014  84.1926898  60.5269750  75.5066814
  83.4094420  61.0691430  75.6005039  84.8919643  61.0443730  75.9061056
  87.5023548  46.3364380  78.1501020  87.9992248  45.5834342  77.8302090
  86.7310530  46.3728696  77.5844229  95.3553306  52.0404745  79.7919311
  95.3443182  52.9229460  79.4213244  94.4870685  51.6876296  79.5973848
  86.8635802  61.1884814  84.1522152  87.5763774  61.8232279  84.0798053
  86.3725831  61.2848680  83.3362153  88.5853329  55.0936067  75.7239443
  87.6509608  55.2137529  75.5544148  88.7629997  54.1908534  75.4599453
  84.0858517  48.4781763  77.8772704  83.7156304  47.9252803  78.5653610
  84.5817609  47.8739896  77.3247704  91.9725880  50.9353386  76.2589477
  92.4386332  51.7681378  76.1849780  92.4233381  50.4698368  76.9634736
  81.9147715  58.9379258  84.9727722  82.6157175  59.5715740  85.1257117
  81.4442830  59.2793989  84.2123362  90.0402111  57.2797207  73.2575629
  90.3161955  57.1653802  74.1669503  89.1706610  56.8814692  73.2187802
  89.9442543  43.3033973  80.2980379  89.0305623  43.5338200  80.4662586
  90.3735644  43.3872417  81.1494411  89.7149001  51.4923865  82.7980273
  89.0620452  51.7399772  82.1432725  90.0929381  50.6788003  82.4642750
  86.6756175  61.5283558  76.9008443  86.8578570  60.7105214  77.3636195
  87.4989161  61.7451250  76.4633333  87.0098341  60.4551743  74.1623491
  87.5386107  59.9444198  73.5493654  87.2726560  60.1394273  75.0269025
  85.7636574  52.2343676  89.2846310  85.0877212  52.1337805  89.9548685
  86.5864208  52.0782890  89.7482307  77.5115434  58.4715613  81.9058825
  78.0968870  57.7259300  82.0386729  77.3140272  58.7819569  82.7895489
  80.3654089  61.5066860  76.9221267  79.6964464  61.9912988  76.4385307
  80.2266958  61.7536080  77.8364646  72.1033088  51.0421213  80.6263268
  72.1417188  50.5084803  81.4200386  71.5973381  50.5156418  80.0074245
  84.5059357  63.5410603  83.5203926  85.0577665  63.7042225  84.2853011
  84.8465551  64.1315041  82.8483951  79.4823851  45.8885753  84.1225810
  79.5465177  46.7500584  83.7103208  79.4190971  45.2759755  83.3898169
  78.9576123  47.9608886  87.7698845  79.5848162  47.5785963  88.3836369
  78.1004042  47.7423088  88.1354537  89.3570232  58.3671861  89.3752580
  89.9010136  58.9801819  88.8807535  88.7757077  58.9251439  89.8919593
  75.7341666  49.7685315  73.7017200  76.0295107  48.8595993  73.6484253
  74.8329702  49.7473054  73.3798202  87.6427745  61.4892579  80.5067608
  87.5178884  60.6882319  79.9978553  88.3006836  61.9838772  80.0181578
  79.2635913  47.8441311  79.6844748  78.5422499  48.4577279  79.5452221
  80.0529169  48.3799076  79.6061394  89.7062653  59.2901599  82.1347158
  88.7592989  59.1706950  82.0625485  90.0545426  58.4024097  82.2173419
  82.0662226  45.1795738  85.9585400  82.5896628  45.4258035  86.7211709
  81.8474560  46.0115773  85.5388537  77.4629507  47.4499413  73.8256525
  77.1342214  46.5696792  73.6431631  77.8168878  47.3947081  74.7132914
  86.7109086  59.0854315  78.3351510  86.5634049  58.1571023  78.5159080
  87.5362580  59.1074406  77.8508586  80.5771331  47.7372382  74.1932002
  80.9167403  48.2658304  73.4710611  81.0243451  48.0752789  74.9690569
  90.3143208  59.9082874  79.4216383  91.2389756  59.7025735  79.2840834
  90.1458512  59.6599275  80.3305725  83.2714771  46.1209433  83.6435070
  82.9311592  45.3217246  84.0455750  82.5653778  46.4211144  83.0711904
  83.9231243  43.2058746  82.0962393  84.7457313  42.7319224  81.9741284
  84.1669307  43.9849229  82.5961080  82.5639478  46.2347004  72.3925295
  83.2847840  46.6128257  71.8889012  81.9404782  46.9535881  72.4960273
  86.7070601  46.9392153  73.3283628  86.9234215  47.8216791  73.0272456
  86.2264668  46.5478366  72.5989269  81.4469822  49.8977866  79.9054372
  81.3014403  50.2118169  80.7978654  80.9695026  50.5162766  79.3525271
  83.3066205  46.8880414  79.9535262  83.2927774  45.9921507  79.6167560
  84.0238633  46.8951078  80.5873548  85.1592336  47.3217754  81.9988389
  84.9010113  48.2434825  81.9972720  84.6277376  46.9248189  82.6888853
  90.1038524  60.4268541  74.7778474  90.2775402  59.8614964  74.0252327
  90.5967416  61.2269436  74.5957964  75.9215484  52.4383211  82.8442033
  75.3768952  53.2143019  82.9762308  76.7994834  52.7854015  82.6861155
  82.7103101  45.7694794  75.2222832  82.8319012  44.8411441  75.4213719
  82.4205143  45.7833480  74.3101147  85.5794291  43.4549705  78.3589552
  85.6015988  43.5189038  77.4041531  85.9962350  42.6154214  78.5530058
  95.9577916  53.1904964  76.3968774  96.4009062  52.4412290  75.9987897
  95.0804426  53.1815101  76.0142506  91.0913697  59.7435306  71.8775373
  91.7864601  60.3641999  72.0962687  91.4336847  58.8930657  72.1527751
  76.7081506  51.5653107  85.7372190  75.9663242  51.7135742  86.3236821
  76.3874250  51.8261372  84.8738940  92.9905120  57.1935011  73.4062704
  93.5156444  57.5322284  72.6812024  92.9027473  56.2582027  73.2225838
  84.6525169  61.1069085  85.5352580  84.9612295  60.8618232  86.4075280
  85.4500651  61.3115724  85.0471450  84.6745781  63.2606995  77.7657957
  84.2350771  62.7683373  78.4590813  85.4253898  62.7179962  77.5250032
  77.1538120  59.4518536  77.7682585  77.9796140  59.1522307  77.3881228
  76.8032172  58.6826158  78.2172373  82.1219653  58.8045004  79.8380258
  81.4999662  58.1415709  79.5382486  82.7924520  58.8306136  79.1553906
  75.3546725  57.3704862  78.7271518  74.5178633  56.9427036  78.5455520
  75.3270370  57.5637305  79.6642310  82.1944180  47.2826792  89.4312764
  82.2432336  48.1588915  89.0490534  82.7366695  46.7404185  88.8584408
  92.6799026  57.8267915  88.7113901  91.8894570  57.8092054  88.1718401
  92.4432381  58.3656209  89.4662938  92.7996901  54.6760381  86.0246630
  92.8494906  54.5110389  86.9662153  92.6910824  53.8087640  85.6344511
  81.6833160  57.3548927  73.3138719  81.8321280  58.0384392  72.6605392
  82.4899603  57.3354017  73.8288175  90.0900663  50.6591309  87.3405937
  90.9910526  50.5197774  87.0489935  90.1648638  50.8245764  88.2804114
  84.4243469  48.0358164  86.1859123  83.5546778  48.3291730  85.9141712
  84.6602949  48.6198609  86.9066387  94.3015098  57.0957323  86.2688652
  94.0099906  57.4587303  87.1052113  93.6887229  56.3824331  86.0901984
  95.5010780  54.6610203  78.7891222  96.3357672  55.1000007  78.9528782
  95.6369909  54.1848856  77.9699468  92.5502286  52.2189938  84.7368710
  93.0256408  52.4117584  83.9287561  91.6267852  52.2749123  84.4912093
  79.4385793  53.3814105  74.3199788  79.1931835  52.4776435  74.5179998
  79.6081707  53.3831255  73.3779266  87.1282503  44.2537781  83.7024543
  87.6464447  44.9898808  83.3771032  86.7737635  44.5601774  84.5371303
  78.7081440  49.1142462  71.8185949  78.0150685  49.1886817  71.1625985
  78.4633192  48.3502806  72.3407466  87.3795097  40.6738064  79.2225440
  87.6596851  40.0061253  79.8485867  88.1645704  40.8667159  78.7100104
  85.1828565  59.8497058  70.7850466  84.6102532  60.4687245  70.3320938
  85.7561359  60.3996419  71.3190388  91.2503955  49.0955698  82.9697015
  92.2021378  49.1953795  82.9909239  91.0807406  48.3033966  83.4795100
  89.2718335  46.1811281  83.1556416  88.6768267  46.4616294  82.4602905
  88.9868031  46.6705182  83.9273157  88.4025825  60.1334208  71.9159049
  89.3356498  60.0679769  72.1191924  88.3149038  60.9690475  71.4573581
  91.0313842  59.4500078  68.8762996  90.9527473  59.1159942  69.7698754
  91.8523509  59.9421846  68.8754469  93.7292033  52.3161817  82.0839315
  93.6968353  51.3777818  82.2698999  94.3392657  52.3945854  81.3505140
  85.5675364  51.1857870  68.1266519  86.5134469  51.0564078  68.1954937
  85.1889609  50.4472532  68.6035947  93.8786521  49.1072861  82.1297598
  93.3625570  48.3231317  81.9427527  94.7626470  48.7791577  82.2944117
  91.5397248  42.8513876  78.0893411  91.3422069  42.5428965  78.9736743
  92.1496954  43.5775515  78.2191341  99.5468583  53.3777824  81.2245352
 100.2771971  53.1163112  81.7853055  98.9375528  52.6406546  81.2647420
  97.6283880  51.5185687  81.8219803  96.9017044  51.3841652  81.2136294
  97.2131167  51.8262515  82.6276521  85.4514056  55.2375616  89.5867176
  86.3717066  55.4154215  89.7807222  85.4163639  54.2931662  89.4346875
  83.7518281  49.1107847  68.0621404  82.8449736  48.8140959  68.1384118
  84.0294262  48.8137665  67.1955690  74.6696221  50.4314210  78.5120450
  74.3499006  49.5779518  78.2194824  74.1229650  50.6462788  79.2678418
  78.4476129  53.1476651  82.2289957  78.6662139  54.0793759  82.2477991
  78.8601903  52.7884626  83.0144761  85.3680347  43.6544736  74.2165645
  84.5581075  43.3091821  74.5920891  86.0564764  43.3452280  74.8053257
  87.2970895  42.7322783  75.8389942  87.8501934  43.1518237  76.4979965
  87.5340981  41.8058531  75.8812898  83.3203994  48.7209857  91.6192706
  83.2200721  49.6704214  91.5504797  83.1025536  48.3928096  90.7468776
  82.5217066  45.9694782  68.2033383  83.3836230  46.2949680  68.4629201
  82.7067410  45.1826278  67.6906449  74.5384481  54.0517122  80.4813572
  73.8447953  53.6371074  79.9683526  75.2857472  54.0937658  79.8846991
  90.6749702  44.8423308  75.3468606  90.0948371  45.5008112  74.9646659
  90.4085635  44.0200653  74.9356024  89.1253268  44.2428366  77.5489927
  89.6253047  44.3544901  76.7404245  89.7688876  43.9389419  78.1890735
  83.1835264  52.1506996  90.4357768  82.7002346  52.9507356  90.6421657
  83.2696203  52.1614941  89.4825212  76.4521224  53.9835375  78.3579587
  76.4291912  54.0823063  77.4061470  76.7621860  54.8300526  78.6796753
  79.1108602  56.0411530  82.4726201  80.0651855  56.0095473  82.4056133
  78.9121125  55.5802154  83.2876427  79.7007984  54.6112646  85.0396999
  80.5200873  55.1056725  85.0631836  79.9744792  53.6944615  85.0114567
  89.4574580  47.0023399  74.4024955  88.5700435  47.2873049  74.1845149
  89.8728569  46.8417162  73.5552231  92.8089116  47.0269920  78.1179294
  93.5849506  47.5166372  78.3903911  92.0837250  47.4527974  78.5751163
  95.2461675  47.7397539  79.1753234  95.8406166  47.4993275  78.4646543
  95.3188259  47.0204670  79.8026771  77.4658831  61.5831150  79.4896399
  77.3313298  60.8231551  78.9234397  77.0490893  62.3072050  79.0225188
  88.6017794  56.7668073  68.4972975  89.3053644  56.9718076  69.1130630
  87.8780442  57.3344835  68.7622058  89.4315604  52.5177935  74.6175245
  89.3750805  52.9746486  73.7782877  89.9843946  51.7568619  74.4398087
  93.2420410  48.3067667  75.4425364  92.9857344  47.9064302  76.2733572
  92.6173278  49.0211461  75.3175503  97.5532748  51.0463740  77.9496656
  96.9932306  51.1156929  78.7228218  96.9476251  50.8704724  77.2296152
  80.6227956  62.4800467  79.7014842  80.5060341  63.4245899  79.5993532
  79.8020403  62.1774028  80.0900641  90.5104491  57.2050603  70.5471435
  91.3450095  56.7731801  70.3648909  90.3488834  57.0332616  71.4748329
  90.1650383  53.7082716  71.9127774  90.1099187  53.5426987  70.9716218
  89.5396438  54.4158749  72.0689964  74.9542898  48.9450780  85.7389196
  75.6001762  48.4349734  86.2276421  74.7460049  49.6819462  86.3132621
  87.4796290  56.0131628  91.2381337  88.3487450  56.1872280  90.8767972
  87.0003042  56.8326045  91.1157066  83.4746509  43.2090825  71.4913092
  83.4625178  44.1532665  71.6481363  84.3669930  43.0260970  71.1972553
  81.6482471  63.1328729  82.9170770  82.5509717  63.1652339  83.2337265
  81.4219841  62.2029180  82.9317106  83.4036073  61.8859715  79.5780849
  82.4531704  61.8861577  79.4645221  83.7068559  61.1392450  79.0616884
  87.2898628  39.8033602  75.7459029  86.5231024  39.2492088  75.8915711
  87.7009333  39.8755470  76.6073181  79.2940389  46.0918397  89.8364210
  80.1571851  45.7355202  90.0467535  78.7205800  45.7532292  90.5239615
  99.1388766  67.7220254  80.6426611  99.7767176  67.6027001  79.9389951
  99.0209609  68.6701098  80.7014563  95.9478472  67.6747682  80.5788136
  95.6096984  67.5588747  79.6908671  96.8168241  67.2738847  80.5589142
  91.8065288  69.5283158  76.5685027  91.2430153  69.4373095  75.8001315
  91.6917683  68.7083063  77.0487519  96.4298255  68.8282534  86.5374342
  96.4186896  68.4335332  85.6654845  96.5918895  68.0948606  87.1308113
  89.3529720  71.0234350  79.4069247  90.1451012  70.6825175  78.9915547
  89.5926370  71.1329325  80.3271401  97.3864847  73.1954126  71.8799492
  96.7352827  73.7808206  71.4933506  98.1809210  73.7260321  71.9394529
  91.3120474  70.2843263  72.2786626  92.0851350  69.7372250  72.1399502
  91.6645873  71.1487512  72.4901088  93.1505516  71.6119645  85.4853526
  92.8595382  72.5165276  85.3700192  93.7862501  71.6536173  86.1997595
  94.0761723  68.9896494  82.0754885  94.6725296  68.7652516  81.3611848
  94.1336695  68.2481239  82.6780333  93.6486752  66.4435929  69.9105076
  93.9012272  65.9217451  69.1488539  92.7111311  66.2802075  70.0131760
  98.6930035  65.4471708  77.7179819  99.4793124  65.0291131  77.3670236
  98.9568739  66.3517800  77.8861468  98.8640112  70.8844558  72.4168476
  98.2285945  70.9579184  73.1289381  98.5337518  71.4738157  71.7387555
 104.0938462  65.3846941  78.6212798 104.8263634  64.8146158  78.8550627
 103.3377817  64.9968541  79.0619303  93.3683040  68.3464035  72.1129451
  93.2519299  67.6708939  72.7810535  93.4785300  67.8596409  71.2961604
  95.7114581  67.8074182  75.8176140  95.3472789  67.2804803  76.5289062
  96.5681697  67.4172651  75.6442626 101.6163882  59.0968515  83.0807406
 101.2847207  59.9663926  82.8568621 101.0209495  58.7804799  83.7601437
  95.3520068  62.8364082  70.8137489  95.5194471  63.7044318  71.1807960
  95.1617237  62.9991364  69.8898778  98.1095402  71.2981061  82.4803319
  97.8096125  72.2006100  82.3719126  97.7646461  71.0313244  83.3324472
  91.5607883  67.7494858  78.5140024  90.6358380  67.6171072  78.7217715
  91.8092296  68.5289077  79.0109966 101.5092545  63.8163601  80.1600757
 100.6009423  63.7479010  79.8659517 101.4580141  64.2935546  80.9882582
  95.3309289  65.2921739  71.7984156  95.2108914  65.7378790  72.6369636
  94.6361878  65.6407057  71.2397694  88.9216694  67.3928131  79.3483813
  89.0509075  67.6462610  80.2623224  88.2414145  67.9855839  79.0288468
  93.0916181  78.0625381  75.4474287  93.0140211  79.0133206  75.5262767
  92.4877825  77.7171254  76.1049213  95.5833411  65.2353247  88.1035654
  94.8066745  65.7947167  88.0938518  96.2223974  65.7210030  88.6250524
 103.3754192  62.0180039  81.9378630 102.7328572  62.3112573  81.2918425
 102.8709120  61.9032960  82.7431827 101.0294355  65.7643213  72.6264490
 101.9412212  65.9970599  72.4512187 100.5204002  66.3480257  72.0639568
  93.8379783  68.0438700  87.6653621  94.5794468  68.5823744  87.3888444
  93.1316769  68.6704989  87.8225173  99.3135123  70.1867841  86.2625782
  99.7218479  69.7450251  85.5180415  98.5912385  69.6120468  86.5159975
  95.6666193  65.1240447  83.6359339  96.5127388  65.5479861  83.7793988
  95.6064831  64.4674072  84.3297902  99.6363938  70.7469031  80.0178071
  99.0072800  70.9114745  79.3154139  99.2489600  71.1610641  80.7889035
 103.5153170  71.6823469  77.3722435 102.8304208  72.0622370  76.8219468
 103.5997019  72.2918796  78.1054383  98.8165638  62.7844816  85.2940513
  98.5726570  63.5386876  84.7574789  99.0925569  63.1630163  86.1287760
 100.7704101  69.3283428  83.9717778 100.9820996  69.9715188  83.2952160
 100.7233849  68.4945745  83.5039709  98.3730330  61.9401249  80.8754351
  97.5114809  62.2382502  81.1671088  98.3992765  62.1571648  79.9435383
  95.1891900  70.4843439  77.2828156  95.6530245  70.7631142  76.4932779
  94.9248698  69.5826884  77.1001247  92.0815981  70.0314921  80.2207920
  92.6517338  70.4602189  79.5825404  92.6724092  69.7497505  80.9192105
  94.1260786  66.6066592  74.0917721  94.8284829  67.0587635  74.5591648
  93.7941414  65.9650410  74.7197615  92.5741147  65.1978348  88.4668931
  91.9439808  65.8794629  88.7004328  92.4677235  65.0861430  87.5222069
  87.8686120  64.8650144  79.3934855  87.0785174  65.1207673  78.9174966
  88.3597367  65.6798482  79.4986896 101.8849929  72.2055383  82.1440136
 102.7067373  71.8035571  81.8622817 101.8812332  72.1023618  83.0956252
  89.8200865  65.2294723  76.3518332  89.0232028  65.3413418  76.8701827
  89.5926457  65.5681376  75.4859222  95.6506533  71.7539427  84.3000846
  95.7150965  72.2159834  85.1359018  94.9417456  71.1236792  84.4283156
  86.1523823  65.1180635  81.8249846  86.4031861  66.0027645  82.0907422
  86.6883371  64.9385236  81.0524938  95.3654550  73.4207534  74.1679827
  95.2300225  74.2659070  74.5964674  95.9064363  73.6226812  73.4045760
  91.8521890  59.4999114  90.8294182  91.4588835  58.9465313  91.5041826
  92.6688030  59.8109693  91.2200699  88.8183948  70.9382972  74.7407752
  89.3308468  71.7326223  74.8913316  89.4706660  70.2409263  74.6741353
  90.6278832  74.0548729  76.8230505  90.8045461  74.9766693  76.6351489
  91.4235666  73.7407148  77.2524885  94.7689851  60.9156993  88.4214438
  95.5099564  61.5164146  88.3418901  95.0007774  60.1734631  87.8632481
  89.9131189  66.1013360  86.6992668  89.7984704  65.1998618  86.9999767
  89.0575707  66.3477057  86.3477485  91.7510148  75.5726902  82.8240847
  92.3017573  75.4443966  82.0517841  90.9121624  75.8721791  82.4735740
  95.5477319  71.8378030  87.1685078  96.0805656  71.0766318  86.9384386
  95.0191400  71.5451682  87.9109233  98.7147014  56.9438096  82.6978720
  98.3711283  57.8339738  82.6217831  99.0825976  56.7539754  81.8348305
  86.7832864  69.2671627  75.5167322  87.6208086  69.6768635  75.3001030
  86.9611132  68.3271069  75.4867516  98.6797297  66.9346707  71.2051155
  98.1643920  67.7051312  71.4439543  98.4074605  66.2611843  71.8284217
  96.2644408  61.7796408  76.2636394  95.4086004  61.3903258  76.0842032
  96.6771359  61.8588369  75.4036179  97.7943554  59.3142751  80.6627953
  97.2908350  59.2772886  79.8495759  98.0874161  60.2235494  80.7224610
  94.0386440  59.3981481  79.6694135  94.9039437  59.2024290  79.3100025
  94.1063949  59.1691833  80.5963492 103.6531571  69.6879062  73.1404329
 102.8761013  69.3490221  72.6959491 104.3323052  69.6931685  72.4659294
  98.4683600  64.8073799  73.0310936  98.1633735  65.1219948  73.8821080
  99.4214042  64.8855219  73.0738269  96.9130032  70.9664023  74.6803890
  96.3851393  70.2316782  74.3677128  96.4117534  71.7438699  74.4343859
 101.8922878  69.1613043  79.7970937 101.2346552  69.8512304  79.8851065
 102.6963277  69.5509475  80.1404923  91.6448759  61.6283689  77.0410502
  92.2192511  61.4058870  76.3083695  92.2319742  61.6972383  77.7939103
 100.7028336  67.5157416  77.8474878 101.2160218  68.1487408  78.3496588
 101.3529560  66.9158611  77.4818238  91.9718346  63.6588150  71.0606387
  91.1355659  63.9962836  71.3815662  91.8323116  63.5237130  70.1233524
  93.9471427  58.5024938  75.7685571  93.2935839  58.1873955  75.1442186
  93.9051901  57.8800678  76.4945394  95.0582632  68.7844233  67.6838863
  94.1509693  68.5533486  67.8830012  95.5553664  67.9881852  67.8712845
  97.9650711  77.4941740  70.6035550  97.2912409  77.7973437  71.2120507
  98.3516533  78.2970820  70.2541007  97.1809167  64.9906871  80.0933219
  96.2631729  65.2121818  79.9354907  97.5969311  65.0653182  79.2344926
  97.9644215  66.3898287  75.2235899  98.7116034  66.9019684  74.9143021
  98.2335805  66.0682340  76.0840293  96.2370865  68.8856828  72.2062853
  95.3282084  68.6015861  72.3035323  96.2665949  69.3055906  71.3466160
 101.4690133  72.4963417  75.9754021 101.0152460  71.6554327  76.0319212
 100.8384099  73.1324816  76.3128801 100.4123052  63.4255403  77.2054688
  99.6745809  62.9132789  77.5364931 100.6649826  62.9855785  76.3937965
  99.9123072  74.3339914  76.9103839 100.2046046  74.8944971  76.1916205
 100.4221692  74.6268475  77.6656998 100.5134679  56.2031655  77.7996458
 100.8193556  55.3429019  77.5122373 101.2387284  56.7949275  77.5995452
  86.8059036  66.6062342  76.1878056  86.6083435  66.0131703  75.4629122
  86.2505700  66.3014552  76.9053994  94.7855759  66.4985448  78.3072649
  94.8404369  65.5459285  78.2315125  93.9746961  66.6544887  78.7913947
  95.9346953  70.4265571  69.5450932  95.4966383  69.7101430  69.0856569
  96.6757394  70.6541686  68.9836023  92.7248119  65.1162508  76.0663028
  91.9115985  65.4156679  76.4728220  93.2207113  64.7218197  76.7837510
  94.8756697  75.1120265  77.9997292  94.8332876  75.3381111  77.0705824
  95.7919396  74.8783640  78.1483094  98.3222331  65.5804333  84.8977922
  98.6771719  65.8075806  85.7572387  98.9694462  65.9122709  84.2755177
 104.0520068  68.7022768  75.6027251 103.9137966  68.8924364  74.6748440
 103.6956287  69.4642151  76.0595302  92.2162194  62.6880864  81.6824263
  92.8561573  62.5469623  80.9847226  91.3839724  62.4015377  81.3062865
 104.0789447  70.7699295  80.6138522 104.5125954  70.6774585  81.4621576
 104.7921028  70.7456796  79.9758538  92.9922498  71.9883294  77.7959255
  93.7863096  71.4933614  77.5941830  92.2814190  71.4601157  77.4326961
  97.8117342  74.3701390  82.1471623  97.8654365  74.9392326  82.9149339
  96.9432124  74.5403275  81.7825660  89.3005261  66.1326376  73.8719008
  88.3702849  66.0710831  74.0888970  89.3962733  65.6102329  73.0755649
  89.2190810  62.6581189  76.4597249  89.4797628  63.5726522  76.3506410
  90.0407983  62.1905631  76.6093862  90.6915736  64.0718946  83.6296074
  91.3638789  63.8636308  82.9808723  89.8645522  63.8741032  83.1901306
  96.5941308  60.6980887  85.6461735  95.9469223  61.3970836  85.5526211
  97.3642323  61.1317031  86.0137983  96.7705442  68.5361652  83.7058555
  97.6997502  68.6872811  83.5327522  96.3496472  68.6245672  82.8507201
  95.5693774  72.5612316  81.4757092  95.4304860  72.1931100  82.3483030
  94.7808370  73.0759955  81.3041050  96.1641926  77.6621412  72.8182629
  96.3393681  77.1909456  73.6328251  95.4774714  78.2887179  73.0463889
  97.1198989  71.9393919  78.8645930  96.7848822  71.8994689  79.7603580
  96.6202935  71.2738635  78.3916340  91.0943233  67.3461549  84.3898511
  90.9563031  66.6141788  84.9910050  92.0048156  67.2570449  84.1082699
 100.0558181  69.2849953  69.1382990  99.4387351  68.5596781  69.0416042
  99.5874669  70.0459313  68.7950064  93.7225534  67.0581508  83.8782191
  94.4325152  66.4174700  83.8368809  93.6794842  67.3094403  84.8008372
  92.4354468  64.0446726  85.6977830  91.8991825  63.5937464  86.3499427
  91.8471176  64.1792635  84.9548295  90.7303011  80.8110775  79.5922489
  90.9699609  81.4429299  80.2701507  89.8872208  80.4598815  79.8787848
  91.8456727  63.5035377  68.2604294  90.9686193  63.3824178  67.8966541
  92.3214480  62.7121456  68.0083183 101.7129720  71.9588445  85.0302750
 100.8256498  71.6214367  85.1529149 102.2828271  71.2271477  85.2671515
  83.3658867  68.2912537  78.3545801  84.0529906  67.9774267  77.7666816
  83.2106995  69.1953902  78.0813052  88.1693589  63.1802734  82.7830825
  88.0851778  62.5728403  82.0481235  87.3476295  63.6711752  82.7840321
  95.2430873  76.6189898  81.9963993  95.1701044  77.4244869  82.5083297
  94.8008266  76.8181864  81.1712014  95.0320653  75.8561668  75.5066814
  94.2488174  76.3983348  75.6005039  95.7313398  76.3735647  75.9061056
  98.3417303  61.6656297  78.1501020  98.8386002  60.9126260  77.8302090
  97.5704284  61.7020614  77.5844229  99.4247083  70.4227984  75.7239443
  98.4903362  70.5429447  75.5544148  99.6023752  69.5200451  75.4599453
  94.9252271  63.8073680  77.8772704  94.5550059  63.2544721  78.5653610
  95.4211364  63.2031814  77.3247704 102.8119635  66.2645304  76.2589477
 103.2780087  67.0973295  76.1849780 103.2627135  65.7990285  76.9634736
  92.7541470  74.2671175  84.9727722  93.4550929  74.9007658  85.1257117
  92.2836585  74.6085907  84.2123362 100.8795866  72.6089125  73.2575629
 101.1555710  72.4945720  74.1669503 100.0100365  72.2106610  73.2187802
 100.7836297  58.6325891  80.2980379  99.8699377  58.8630118  80.4662586
 101.2129399  58.7164335  81.1494411 100.5542756  66.8215783  82.7980273
  99.9014206  67.0691690  82.1432725 100.9323136  66.0079921  82.4642750
  97.5149930  76.8575476  76.9008443  97.6972324  76.0397132  77.3636195
  98.3382916  77.0743168  76.4633333  97.8492095  75.7843661  74.1623491
  98.3779862  75.2736116  73.5493654  98.1120315  75.4686191  75.0269025
  96.6030329  67.5635594  89.2846310  95.9270966  67.4629723  89.9548685
  97.4257963  67.4074807  89.7482307  88.3509188  73.8007530  81.9058825
  88.9362625  73.0551218  82.0386729  88.1534026  74.1111487  82.7895489
  91.2047843  76.8358778  76.9221267  90.5358219  77.3204905  76.4385307
  91.0660713  77.0827998  77.8364646  82.9426843  66.3713130  80.6263268
  82.9810942  65.8376721  81.4200386  82.4367136  65.8448336  80.0074245
  90.3217605  61.2177671  84.1225810  90.3858932  62.0792502  83.7103208
  90.2584725  60.6051673  83.3898169  89.7969878  63.2900803  87.7698845
  90.4241916  62.9077881  88.3836369  88.9397796  63.0715005  88.1354537
  86.5735420  65.0977233  73.7017200  86.8688861  64.1887911  73.6484253
  85.6723456  65.0764972  73.3798202  98.4821499  76.8184497  80.5067608
  98.3572639  76.0174237  79.9978553  99.1400590  77.3130690  80.0181578
  90.1029667  63.1733229  79.6844748  89.3816253  63.7869197  79.5452221
  90.8922923  63.7090994  79.6061394 100.5456408  74.6193517  82.1347158
  99.5986743  74.4998868  82.0625485 100.8939181  73.7316015  82.2173419
  92.9055981  60.5087656  85.9585400  93.4290383  60.7549952  86.7211709
  92.6868314  61.3407690  85.5388537  88.3023262  62.7791330  73.8256525
  87.9735968  61.8988709  73.6431631  88.6562633  62.7238999  74.7132914
  97.5502841  74.4146233  78.3351510  97.4027803  73.4862940  78.5159080
  98.3756334  74.4366324  77.8508586  91.4165085  63.0664300  74.1932002
  91.7561158  63.5950221  73.4710611  91.8637206  63.4044706  74.9690569
 101.1536963  75.2374792  79.4216383 102.0783510  75.0317653  79.2840834
 100.9852266  74.9891193  80.3305725  94.1108526  61.4501351  83.6435070
  93.7705346  60.6509164  84.0455750  93.4047532  61.7503062  83.0711904
  94.7624998  58.5350663  82.0962393  95.5851067  58.0611141  81.9741284
  95.0063061  59.3141147  82.5961080  93.4033232  61.5638922  72.3925295
  94.1241595  61.9420174  71.8889012  92.7798536  62.2827798  72.4960273
  97.5464355  62.2684071  73.3283628  97.7627970  63.1508708  73.0272456
  97.0658422  61.8770284  72.5989269  92.2863577  65.2269784  79.9054372
  92.1408157  65.5410087  80.7978654  91.8088780  65.8454684  79.3525271
  94.1459959  62.2172332  79.9535262  94.1321528  61.3213425  79.6167560
  94.8632388  62.2242996  80.5873548  95.9986090  62.6509672  81.9988389
  95.7403868  63.5726743  81.9972720  95.4671130  62.2540107  82.6888853
 100.9432279  75.7560459  74.7778474 101.1169156  75.1906882  74.0252327
 101.4361170  76.5561354  74.5957964  86.7609239  67.7675128  82.8442033
  86.2162707  68.5434936  82.9762308  87.6388589  68.1145933  82.6861155
  93.5496855  61.0986712  75.2222832  93.6712767  60.1703358  75.4213719
  93.2598898  61.1125398  74.3101147  96.4188046  58.7841623  78.3589552
  96.4409743  58.8480956  77.4041531  96.8356105  57.9446131  78.5530058
 101.9307451  75.0727224  71.8775373 102.6258356  75.6933916  72.0962687
 102.2730601  74.2222575  72.1527751  87.5475261  66.8945025  85.7372190
  86.8056997  67.0427660  86.3236821  87.2268005  67.1553290  84.8738940
 103.8298874  72.5226929  73.4062704 104.3550199  72.8614202  72.6812024
 103.7421227  71.5873944  73.2225838  95.5139535  78.5898912  77.7657957
  95.0744526  78.0975291  78.4590813  96.2647652  78.0471880  77.5250032
  87.9931874  74.7810453  77.7682585  88.8189894  74.4814225  77.3881228
  87.6425926  74.0118076  78.2172373  92.9613407  74.1336921  79.8380258
  92.3393417  73.4707626  79.5382486  93.6318274  74.1598053  79.1553906
  86.1940479  72.6996780  78.7271518  85.3572388  72.2718954  78.5455520
  86.1664125  72.8929223  79.6642310  93.0337935  62.6118709  89.4312764
  93.0826090  63.4880832  89.0490534  93.5760449  62.0696103  88.8584408
  92.5226914  72.6840845  73.3138719  92.6715035  73.3676309  72.6605392
  93.3293358  72.6645935  73.8288175 100.9294418  65.9883227  87.3405937
 101.8304281  65.8489692  87.0489935 101.0042392  66.1537682  88.2804114
  95.2637223  63.3650082  86.1859123  94.3940533  63.6583648  85.9141712
  95.4996704  63.9490527  86.9066387 103.3896041  67.5481855  84.7368710
 103.8650162  67.7409502  83.9287561 102.4661606  67.6041041  84.4912093
  90.2779547  68.7106022  74.3199788  90.0325589  67.8068352  74.5179998
  90.4475462  68.7123173  73.3779266  97.9676257  59.5829699  83.7024543
  98.4858201  60.3190726  83.3771032  97.6131390  59.8893692  84.5371303
  89.5475195  64.4434380  71.8185949  88.8544440  64.5178735  71.1625985
  89.3026947  63.6794724  72.3407466  98.2188851  56.0029981  79.2225440
  98.4990605  55.3353170  79.8485867  99.0039458  56.1959077  78.7100104
  96.0222320  75.1788975  70.7850466  95.4496287  75.7979162  70.3320938
  96.5955113  75.7288337  71.3190388 102.0897710  64.4247615  82.9697015
 103.0415133  64.5245713  82.9909239 101.9201160  63.6325884  83.4795100
 100.1112089  61.5103199  83.1556416  99.5162021  61.7908211  82.4602905
  99.8261786  61.9997099  83.9273157  99.2419580  75.4626125  71.9159049
 100.1750253  75.3971687  72.1191924  99.1542792  76.2982392  71.4573581
 101.8707596  74.7791996  68.8762996 101.7921228  74.4451859  69.7698754
 102.6917263  75.2713764  68.8754469  96.4069118  66.5149788  68.1266519
  97.3528223  66.3855996  68.1954937  96.0283363  65.7764450  68.6035947
 102.3791003  58.1805794  78.0893411 102.1815824  57.8720882  78.9736743
 102.9890708  58.9067433  78.2191341  94.5912035  64.4399764  68.0621404
  93.6843491  64.1432877  68.1384118  94.8688016  64.1429582  67.1955690
  85.5089976  65.7606128  78.5120450  85.1892760  64.9071436  78.2194824
  84.9623404  65.9754706  79.2678418  89.2869883  68.4768569  82.2289957
  89.5055893  69.4085677  82.2477991  89.6995657  68.1176543  83.0144761
  96.2074101  58.9836654  74.2165645  95.3974830  58.6383739  74.5920891
  96.8958518  58.6744198  74.8053257  98.1364649  58.0614701  75.8389942
  98.6895688  58.4810154  76.4979965  98.3734736  57.1350449  75.8812898
  94.1597749  64.0501775  91.6192706  94.0594476  64.9996132  91.5504797
  93.9419291  63.7220013  90.7468776  93.3610820  61.2986700  68.2033383
  94.2229984  61.6241598  68.4629201  93.5461164  60.5118196  67.6906449
  85.3778236  69.3809039  80.4813572  84.6841707  68.9662992  79.9683526
  86.1251227  69.4229576  79.8846991 101.5143457  60.1715226  75.3468606
 100.9342126  60.8300030  74.9646659 101.2479389  59.3492571  74.9356024
  99.9647023  59.5720284  77.5489927 100.4646801  59.6836818  76.7404245
 100.6082631  59.2681337  78.1890735  94.0229019  67.4798913  90.4357768
  93.5396100  68.2799274  90.6421657  94.1089958  67.4906858  89.4825212
  87.2914978  69.3127293  78.3579587  87.2685666  69.4114980  77.4061470
  87.6015615  70.1592444  78.6796753  89.9502356  71.3703448  82.4726201
  90.9045610  71.3387390  82.4056133  89.7514880  70.9094072  83.2876427
  90.5401738  69.9404564  85.0396999  91.3594627  70.4348643  85.0631836
  90.8138546  69.0236532  85.0114567 100.2968335  62.3315316  74.4024955
  99.4094190  62.6164967  74.1845149 100.7122324  62.1709080  73.5552231
 103.6482871  62.3561837  78.1179294 104.4243261  62.8458290  78.3903911
 102.9231005  62.7819892  78.5751163  88.3052585  76.9123068  79.4896399
  88.1707053  76.1523468  78.9234397  87.8884647  77.6363967  79.0225188
  99.4411548  72.0959991  68.4972975 100.1447398  72.3009994  69.1130630
  98.7174197  72.6636753  68.7622058 100.2709358  67.8469852  74.6175245
 100.2144560  68.3038404  73.7782877 100.8237701  67.0860537  74.4398087
 104.0814164  63.6359584  75.4425364 103.8251098  63.2356220  76.2733572
 103.4567032  64.3503378  75.3175503  91.4621711  77.8092385  79.7014842
  91.3454095  78.7537817  79.5993532  90.6414157  77.5065946  80.0900641
 101.3498245  72.5342520  70.5471435 102.1843849  72.1023719  70.3648909
 101.1882588  72.3624534  71.4748329 101.0044138  69.0374634  71.9127774
 100.9492941  68.8718905  70.9716218 100.3790193  69.7450667  72.0689964
  85.7936653  64.2742698  85.7389196  86.4395516  63.7641652  86.2276421
  85.5853804  65.0111380  86.3132621  94.3140263  58.5382743  71.4913092
  94.3018933  59.4824583  71.6481363  95.2063685  58.3552888  71.1972553
  92.4876225  78.4620646  82.9170770  93.3903472  78.4944257  83.2337265
  92.2613595  77.5321097  82.9317106  94.2429827  77.2151633  79.5780849
  93.2925458  77.2153495  79.4645221  94.5462313  76.4684368  79.0616884
  98.1292383  55.1325519  75.7459029  97.3624778  54.5784006  75.8915711
  98.5403088  55.2047388  76.6073181  90.1334144  61.4210315  89.8364210
  90.9965605  61.0647120  90.0467535  89.5599554  61.0824210  90.5239615
 102.6459043  84.8575076  76.5685027 102.0823908  84.7665013  75.8001315
 102.5311438  84.0374980  77.0487519 102.1514228  85.6135181  72.2786626
 102.9245104  85.0664168  72.1399502 102.5039627  86.4779430  72.4901088
 104.4880506  81.7727847  69.9105076 104.7406027  81.2509368  69.1488539
 103.5505065  81.6093992  70.0131760 104.2076795  83.6755953  72.1129451
 104.0913053  83.0000856  72.7810535 104.3179055  83.1888327  71.2961604
  98.7079874  80.1942062  79.3934855  97.9178928  80.4499590  78.9174966
  99.1991121  81.0090400  79.4986896 100.6594619  80.5586641  76.3518332
  99.8625783  80.6705335  76.8701827 100.4320212  80.8973293  75.4859222
  99.6577702  86.2674890  74.7407752 100.1702223  87.0618140  74.8913316
 100.3100415  85.5701180  74.6741353  97.6226619  84.5963544  75.5167322
  98.4601841  85.0060553  75.3001030  97.8004887  83.6562986  75.4867516
 102.4842514  76.9575607  77.0410502 103.0586266  76.7350788  76.3083695
 103.0713496  77.0264301  77.7939103 102.8112101  78.9880068  71.0606387
 101.9749413  79.3254754  71.3815662 102.6716870  78.8529047  70.1233524
 104.7865181  73.8316855  75.7685571 104.1329594  73.5165873  75.1442186
 104.7445656  73.2092596  76.4945394  97.6452790  81.9354260  76.1878056
  97.4477190  81.3423620  75.4629122  97.0899454  81.6306470  76.9053994
 103.5641874  80.4454426  76.0663028 102.7509739  80.7448596  76.4728220
 104.0600868  80.0510115  76.7837510 100.1399016  81.4618293  73.8719008
  99.2096604  81.4002749  74.0888970 100.2356488  80.9394246  73.0755649
 100.0584565  77.9873106  76.4597249 100.3191382  78.9018440  76.3506410
 100.8801737  77.5197549  76.6093862 102.6850481  78.8327295  68.2604294
 101.8079947  78.7116096  67.8966541 103.1608234  78.0413373  68.0083183
  94.2052621  83.6204455  78.3545801  94.8923661  83.3066185  77.7666816
  94.0500750  84.5245819  78.0813052  99.0087343  78.5094651  82.7830825
  98.9245532  77.9020321  82.0481235  98.1870050  79.0003670  82.7840321
  93.7820597  81.7005048  80.6263268  93.8204697  81.1668639  81.4200386
  93.2760890  81.1740254  80.0074245  97.4129175  80.4269150  73.7017200
  97.7082616  79.5179829  73.6484253  96.5117211  80.4056890  73.3798202
 100.9423422  78.5025147  79.6844748 100.2210008  79.1161115  79.5452221
 101.7316678  79.0382912  79.6061394  99.1417016  78.1083248  73.8256525
  98.8129723  77.2280627  73.6431631  99.4956387  78.0530917  74.7132914
 102.2558840  78.3956218  74.1932002 102.5954912  78.9242139  73.4710611
 102.7030960  78.7336624  74.9690569 104.2426987  76.8930839  72.3925295
 104.9635349  77.2712092  71.8889012 103.6192291  77.6119716  72.4960273
 104.3890610  76.4278630  75.2222832 104.5106521  75.4995276  75.4213719
 104.0992652  76.4417316  74.3101147 103.3620669  88.0132762  73.3138719
 103.5108789  88.6968227  72.6605392 104.1687112  87.9937853  73.8288175
 101.1173302  84.0397940  74.3199788 100.8719344  83.1360270  74.5179998
 101.2869216  84.0415091  73.3779266 100.3868949  79.7726298  71.8185949
  99.6938194  79.8470653  71.1625985 100.1420701  79.0086641  72.3407466
  96.3483730  81.0898045  78.5120450  96.0286515  80.2363354  78.2194824
  95.8017159  81.3046624  79.2678418  98.1308733  84.6419211  78.3579587
  98.1079421  84.7406898  77.4061470  98.4409369  85.4884362  78.6796753
  47.3727994  -3.4994773  66.3167796  47.6124593  -2.8676249  66.9946814
  46.5297191  -3.8506733  66.6033155  59.2884026   0.5469528  63.2930334
  58.7248891   0.4559465  62.5246621  59.1736421  -0.2730568  63.7732826
  56.8348458   2.0420719  66.1314554  57.6269750   1.7011544  65.7160853
  57.0745108   2.1515694  67.0516707  64.8683585   4.2140496  58.6044799
  64.2171564   4.7994576  58.2178812  65.6627947   4.7446690  58.6639836
  58.7939212   1.3029633  59.0031933  59.5670088   0.7558620  58.8644809
  59.1464611   2.1673882  59.2146394  60.6324254   2.6306015  72.2098832
  60.3414120   3.5351646  72.0945498  61.2681239   2.6722543  72.9242902
  65.5914139   2.3167430  69.2048626  65.2914862   3.2192469  69.0964433
  65.2465199   2.0499614  70.0569779  60.5734919   9.0811751  62.1719594
  60.4958949  10.0319576  62.2508074  59.9696563   8.7357623  62.8294520
  62.6710637   1.5029809  64.0073463  63.1348983   1.7817512  63.2178085
  62.4067435   0.6013253  63.8246554  59.5634718   1.0501290  66.9453226
  60.1336076   1.4788559  66.3070711  60.1542830   0.7683875  67.6437412
  63.1325270   2.7725796  71.0246153  63.1969703   3.2346204  71.8604325
  62.4236194   2.1423161  71.1528463  62.8473288   4.4393904  60.8925133
  62.7118963   5.2845440  61.3209981  63.3883101   4.6413181  60.1291067
  56.3002685   1.9569342  61.4653058  56.8127206   2.7512592  61.6158623
  56.9525398   1.2595632  61.3986660  58.1097570   5.0735098  63.5475812
  58.2864198   5.9953063  63.3596795  58.9054404   4.7593517  63.9770191
  64.4741764   5.0617470  75.0225475  64.0305619   4.2753849  74.7046380
  65.1358978   5.2496621  74.3569366  59.2328886   6.5913272  69.5486154
  59.7836311   6.4630335  68.7763148  58.3940362   6.8908161  69.1981047
  66.5723002   5.3420270  73.0506877  66.5541478   6.1629151  72.5587146
  67.4942923   5.2174345  73.2757018  63.0296057   2.8564400  73.8930385
  63.5624393   2.0952688  73.6629693  62.5010138   2.5638052  74.6354539
  54.2651602   0.2857996  62.2412629  55.1026824   0.6955004  62.0246337
  54.4429870  -0.6542562  62.2112823  64.3948769   1.9850392  61.4049197
  63.8670131   1.2503152  61.0922434  63.8936272   2.7625069  61.1589165
  65.4469448   8.5128110  57.3280856  64.7731147   8.8159806  57.9365814
  65.8335270   9.3157190  56.9786313  67.3941810   5.3526283  63.6349146
  67.6864784   5.9131341  62.9161511  67.9040430   5.6454844  64.3902305
  62.3575435   6.1306635  64.7242599  62.3151614   6.3567481  63.7951131
  63.2738134   5.8970009  64.8728400  60.4741236   3.0069664  64.5204562
  61.2681834   2.5119984  64.3187137  59.7632928   2.4787527  64.1572267
  65.2936080   5.3887759  68.8716929  65.3473102   5.9578695  69.6394645
  64.4250861   5.5589644  68.5070967  63.0512512   3.5798686  68.2002399
  62.9123597   3.2117470  69.0728337  62.2627108   4.0946325  68.0286357
  63.6460664   8.6807782  59.5427935  63.8212419   8.2095825  60.3573558
  62.9593452   9.3073548  59.7709196  64.6017727   2.9580288  65.5891237
  64.2667559   2.9181058  66.4848887  64.1021672   2.2925004  65.1161647
  69.1931050   5.0135231  73.5234077  69.1343596   4.3294451  72.8564660
  69.5950568   5.7554221  73.0714703  58.2121749  11.8297145  66.3167796
  58.4518347  12.4615669  66.9946814  57.3690945  11.4785185  66.6033155
  50.8477604  -0.6901093  65.0791108  51.5348644  -1.0039363  64.4912123
  50.6925733   0.2140271  64.8058359  62.7249611   7.6376267  68.7209300
  62.6519782   8.4431239  69.2328604  62.2827004   7.8368233  67.8957321
  62.5139390   6.8748037  62.2312121  61.7306912   7.4169717  62.3250346
  63.2132136   7.3922017  62.6306362  65.1848294   7.5363101  70.8767458
  65.8976266   8.1710566  70.8043360  64.6938323   7.6326967  70.0607460
  60.2360208   5.2857545  71.6973029  60.9369667   5.9194028  71.8502423
  59.7655323   5.6272276  70.9368668  68.3614604   3.6275495  59.9820936
  68.6374448   3.5132089  60.8914810  67.4919102   3.2292979  59.9433109
  64.9968668   7.8761845  63.6253750  65.1791062   7.0583501  64.0881502
  65.8201654   8.0929538  63.1878640  65.3310833   6.8030031  60.8868798
  65.8598600   6.2922485  60.2738960  65.5939053   6.4872561  61.7514331
  55.8327926   4.8193900  68.6304132  56.4181363   4.0737588  68.7632036
  55.6352764   5.1297857  69.5140796  58.6866581   7.8545147  63.6466574
  58.0176956   8.3391275  63.1630614  58.5479451   8.1014368  64.5609953
  50.4245581  -2.6100500  67.3508575  50.4629680  -3.1436909  68.1445693
  49.9185873  -3.1365294  66.7319552  62.8271850   9.8888891  70.2449232
  63.3790158  10.0520512  71.0098318  63.1678043  10.4793329  69.5729257
  67.6782724   4.7150148  76.0997887  68.2222628   5.3280106  75.6052842
  67.0969569   5.2729727  76.6164900  65.9640237   7.8370866  67.2312915
  65.8391376   7.0360606  66.7223860  66.6219328   8.3317060  66.7426885
  68.0275145   5.6379886  68.8592465  67.0805481   5.5185238  68.7870791
  68.3757918   4.7502384  68.9418726  65.0321579   5.4332603  65.0596817
  64.8846541   4.5049310  65.2404387  65.8575072   5.4552693  64.5753892
  68.6355700   6.2561161  66.1461690  69.5602248   6.0504023  66.0086141
  68.4671004   6.0077562  67.0551031  68.4251017   6.7746829  61.5023781
  68.5987894   6.2093251  60.7497634  68.9179908   7.5747724  61.3203271
  54.2427976  -1.2138502  69.5687340  53.6981445  -0.4378694  69.7007614
  55.1207326  -0.8667698  69.4106461  69.4126189   6.0913593  58.6020679
  70.1077094   6.7120286  58.8207994  69.7549339   5.2408944  58.8773057
  62.9737661   7.4547372  72.2597887  63.2824787   7.2096519  73.1320586
  63.7713143   7.6594011  71.7716757  62.9958273   9.6085282  64.4903263
  62.5563263   9.1161661  65.1836120  63.7466390   9.0658250  64.2495339
  55.4750612   5.7996823  64.4927891  56.3008632   5.5000595  64.1126535
  55.1244664   5.0304445  64.9417680  60.4432145   5.1523291  66.5625565
  59.8212154   4.4893996  66.2627793  61.1137012   5.1784423  65.8799213
  53.6759217   3.7183149  65.4516825  52.8391125   3.2905324  65.2700826
  53.6482862   3.9115593  66.3887616  71.0011518   4.1746202  75.4359208
  70.2107062   4.1570341  74.8963708  70.7644873   4.7134496  76.1908245
  60.0045652   3.7027214  60.0384026  60.1533772   4.3862679  59.3850698
  60.8112096   3.6832304  60.5533481  57.7598285  -0.2707608  61.0445094
  57.5144327  -1.1745278  61.2425305  57.9294200  -0.2690458  60.1024572
  63.5041058   6.1975345  57.5095773  62.9315025   6.8165532  57.0566245
  64.0773851   6.7474707  58.0435695  66.7238317   6.4812495  58.6404355
  67.6568991   6.4158057  58.8437231  66.6361530   7.3168762  58.1818888
  69.3526334   5.7978365  55.6008303  69.2739966   5.4638229  56.4944061
  70.1736001   6.2900133  55.5999775  56.7688621  -0.5045062  68.9535264
  56.9874631   0.4272046  68.9723297  57.1814395  -0.8637087  69.7390067
  52.8596974   0.3995409  67.2058879  52.1660445  -0.0150638  66.6928833
  53.6069965   0.4415945  66.6092298  54.7733716   0.3313663  65.0824894
  54.7504404   0.4301350  64.1306777  55.0834353   1.1778813  65.4042060
  57.4321094   2.3889818  69.1971508  58.3864348   2.3573760  69.1301440
  57.2333618   1.9280441  70.0121734  58.0220476   0.9590934  71.7642306
  58.8413365   1.4535012  71.7877143  58.2957284   0.0422902  71.7359873
  55.7871323   7.9309437  66.2141706  55.6525791   7.1709838  65.6479704
  55.3703385   8.6550337  65.7470495  66.9230286   3.1146361  55.2218281
  67.6266136   3.3196363  55.8375937  66.1992935   3.6823123  55.4867365
  58.9440449   8.8278754  66.4260149  58.8272833   9.7724187  66.3238839
  58.1232895   8.5252316  66.8145948  68.8316983   3.5528890  57.2716741
  69.6662587   3.1210088  57.0894216  68.6701326   3.3810904  58.1993636
  65.8008783   2.3609915  77.9626643  66.6699942   2.5350567  77.6013278
  65.3215534   3.1804332  77.8402373  59.9694963   9.4807016  69.6416077
  60.8722210   9.5130626  69.9582572  59.7432333   8.5507467  69.6562413
  61.7248565   8.2338003  66.3026156  60.7744196   8.2339864  66.1890528
  62.0281051   7.4870737  65.7862190  77.4601258  14.0698541  67.3671918
  78.0979668  13.9505288  66.6635258  77.3422101  15.0179385  67.4259870
  74.2690965  14.0225969  67.3033443  73.9309476  13.9067034  66.4153978
  75.1380733  13.6217134  67.2834449  70.1277780  15.8761446  63.2930334
  69.5642645  15.7851382  62.5246621  70.0130175  15.0561350  63.7732826
  74.7510748  15.1760821  73.2619648  74.7399388  14.7813619  72.3900152
  74.9131387  14.4426893  73.8553420  67.6742212  17.3712637  66.1314554
  68.4663504  17.0303462  65.7160853  67.9138862  17.4807612  67.0516707
  75.7077339  19.5432413  58.6044799  75.0565319  20.1286494  58.2178812
  76.5021702  20.0738608  58.6639836  69.6332966  16.6321550  59.0031933
  70.4063842  16.0850537  58.8644809  69.9858365  17.4965800  59.2146394
  71.4718009  17.9597933  72.2098832  71.1807875  18.8643563  72.0945498
  72.1074993  18.0014460  72.9242902  72.3974216  15.3374781  68.8000192
  72.9937788  15.1130804  68.0857155  72.4549187  14.5959527  69.4025640
  71.9699244  12.7914216  56.6350383  72.2224765  12.2695738  55.8733846
  71.0323803  12.6280362  56.7377066  77.0142527  11.7949995  64.4425126
  77.8005616  11.3769418  64.0915543  77.2781231  12.6996087  64.6106774
  77.1852604  17.2322845  59.1413783  76.5498437  17.3057472  59.8534687
  76.8550011  17.8216444  58.4632862  82.4150954  11.7325228  65.3458105
  83.1476126  11.1624445  65.5795934  81.6590310  11.3446828  65.7864610
  71.6895533  14.6942322  58.8374758  71.5731791  14.0187226  59.5055842
  71.7997793  14.2074696  58.0206911  74.0327074  14.1552470  62.5421447
  73.6685281  13.6283091  63.2534368  74.8894190  13.7650939  62.3687932
  73.6732561   9.1842369  57.5382795  73.8406963  10.0522606  57.9053267
  73.4829730   9.3469651  56.6144085  76.4307894  17.6459348  69.2048626
  76.1308617  18.5484387  69.0964433  76.0858953  17.3791531  70.0569779
  69.8820375  14.0973145  65.2385330  68.9570872  13.9649359  65.4463022
  70.1304789  14.8767364  65.7355273  79.8305038  10.1641888  66.8846063
  78.9221915  10.0957297  66.5904824  79.7792633  10.6413833  67.7127889
  73.6521782  11.6400027  58.5229462  73.5321407  12.0857078  59.3614943
  72.9574370  11.9885344  57.9643000  67.2429186  13.7406419  66.0729119
  67.3721568  13.9940897  66.9868531  66.5626638  14.3334127  65.7533774
  71.4128674  24.4103668  62.1719594  71.3352703  25.3611494  62.2508074
  70.8090317  24.0649541  62.8294520  73.9045903  11.5831534  74.8280960
  73.1279237  12.1425454  74.8183825  74.5436466  12.0688317  75.3495831
  81.6966684   8.3658327  68.6623937  81.0541064   8.6590860  68.0163732
  81.1921613   8.2511247  69.4677134  79.3506848  12.1121500  59.3509796
  80.2624704  12.3448887  59.1757494  78.8416495  12.6958544  58.7884875
  72.1592276  14.3916987  74.3898927  72.9006960  14.9302031  74.1133751
  71.4529261  15.0183276  74.5470479  77.6347615  16.5346128  72.9871089
  78.0430971  16.0928538  72.2425721  76.9124877  15.9598755  73.2405282
  73.9878685  11.4718735  70.3604646  74.8339881  11.8958148  70.5039295
  73.9277323  10.8152359  71.0543209  77.9576430  17.0947318  66.7423378
  77.3285292  17.2593033  66.0399446  77.5702092  17.5088928  67.5134342
  81.8365662  18.0301756  64.0967742  81.1516700  18.4100658  63.5464775
  81.9209511  18.6397083  64.8299689  77.1378131   9.1323103  72.0185820
  76.8939063   9.8865163  71.4820095  77.4138061   9.5108450  72.8533067
  79.0916593  15.6761715  70.6963085  79.3033489  16.3193475  70.0197466
  79.0446342  14.8424032  70.2285015  76.6942822   8.2879536  67.5999657
  75.8327301   8.5860789  67.8916395  76.7205257   8.5049935  66.6680690
  73.5104392  16.8321726  64.0073463  73.9742737  17.1109429  63.2178085
  73.2461190  15.9305171  63.8246554  70.4028473  16.3793208  66.9453226
  70.9729830  16.8080476  66.3070711  70.9936585  16.0975793  67.6437412
  72.4473278  12.9544879  60.8163028  73.1497321  13.4065922  61.2836954
  72.1153906  12.3128698  61.4442921  70.8953639  11.5456635  75.1914237
  70.2652300  12.2272916  75.4249634  70.7889727  11.4339717  74.2467376
  66.1898612  11.2128431  66.1180162  65.3997666  11.4685960  65.6420272
  66.6809859  12.0276769  66.2232202  80.2062421  18.5533671  68.8685442
  81.0279865  18.1513858  68.5868124  80.2024824  18.4501905  69.8201558
  68.1413357  11.5773011  63.0763638  67.3444521  11.6891705  63.5947134
  67.9138949  11.9159663  62.2104529  73.9719025  18.1017714  71.0246153
  74.0363457  18.5638121  71.8604325  73.2629949  17.4715079  71.1528463
  64.4736315  11.4658922  68.5495152  64.7244353  12.3505932  68.8152728
  65.0095863  11.2863523  67.7770244  88.2968414  14.8972419  65.2170414
  87.5432123  14.3279817  65.0614418  88.4315956  14.8635084  66.1641049
  73.6867043  19.7685821  60.8925133  73.5512717  20.6137357  61.3209981
  74.2276855  19.9705099  60.1291067  70.1734382   5.8477401  77.5539488
  69.7801328   5.2943600  78.2287133  70.9900523   6.1587980  77.9446006
  67.1396440  17.2861259  61.4653058  67.6520961  18.0804510  61.6158623
  67.7919153  16.5887550  61.3986660  68.9491325  20.4027016  63.5475812
  69.1257953  21.3244980  63.3596795  69.7448158  20.0885435  63.9770191
  73.0902343   7.2635280  75.1459745  73.8312057   7.8642434  75.0664208
  73.3220266   6.5212918  74.5877788  68.2343681  12.4491648  73.4237975
  68.1197196  11.5476905  73.7245074  67.3788199  12.6955344  73.0722791
  75.3135519  20.3909388  75.0225475  74.8699373  19.6045767  74.7046380
  75.9752733  20.5788538  74.3569366  70.0722640  21.9205190  69.5486154
  70.6230065  21.7922253  68.7763148  69.2334116  22.2200079  69.1981047
  77.4116757  20.6712188  73.0506877  77.3935232  21.4921069  72.5587146
  78.3336677  20.5466263  73.2757018  73.8689811  18.1856317  73.8930385
  74.4018148  17.4244606  73.6629693  73.3403892  17.8929969  74.6354539
  65.1045357  15.6149914  62.2412629  65.9420579  16.0246922  62.0246337
  65.2823624  14.6749356  62.2112823  77.0009789  13.2824994  57.9296462
  76.4856412  14.0529599  58.1684849  76.7287097  12.6090131  58.5529523
  74.5856900   8.1274695  62.9881700  73.7298496   7.7381546  62.8087339
  74.9983852   8.2066656  62.1281486  76.1156046   5.6621038  67.3873260
  75.6120842   5.6251174  66.5741065  76.4086653   6.5713781  67.4469917
  72.3598932   5.7459768  66.3939442  73.2251929   5.5502577  66.0345331
  72.4276441   5.5170120  67.3208798  81.9744063  16.0357349  59.8649635
  81.1973506  15.6968509  59.4204797  82.6535544  16.0409972  59.1904600
  76.7896092  11.1552087  59.7556243  76.4846228  11.4698236  60.6066386
  77.7426534  11.2333506  59.7983576  75.2342524  17.3142310  61.4049197
  74.7063885  16.5795069  61.0922434  74.7330027  18.0916986  61.1589165
  80.2135370  15.5091330  66.5216243  79.5559044  16.1990592  66.6096372
  81.0175769  15.8987762  66.8650230  69.9661251   7.9761976  63.7655809
  70.5405003   7.7537158  63.0329001  70.5532234   8.0450671  64.5184410
  79.0240829  13.8635703  64.5720185  79.5372710  14.4965695  65.0741895
  79.6742053  13.2636899  64.2063545  70.2930839  10.0066437  57.7851694
  69.4568151  10.3441124  58.1060969  70.1535608   9.8715417  56.8478831
  72.2683919   4.8503225  62.4930878  71.6148332   4.5352242  61.8687493
  72.2264393   4.2278966  63.2190701  73.3795124  15.1322520  54.4084170
  72.4722186  14.9011774  54.6075319  73.8766156  14.3360139  54.5958152
  76.2863203  23.8420027  57.3280856  75.6124902  24.1451724  57.9365814
  76.6729025  24.6449108  56.9786313  75.5021660  11.3385159  66.8178526
  74.5844221  11.5600106  66.6600214  75.9181803  11.4131469  65.9590233
  76.2856707  12.7376574  61.9481206  77.0328526  13.2497971  61.6388328
  76.5548297  12.4160627  62.8085599  74.5583357  15.2335115  58.9308160
  73.6494577  14.9494148  59.0280630  74.5878441  15.6534194  58.0711467
  79.7902625  18.8441704  62.6999328  79.3364952  18.0032614  62.7564518
  79.1596592  19.4803103  63.0374108  78.7335544   9.7733691  63.9299995
  77.9958301   9.2611077  64.2610238  78.9862318   9.3334072  63.1183272
  78.2335564  20.6818201  63.6349146  78.5258538  21.2423258  62.9161511
  78.7434185  20.9746762  64.3902305  65.1271528  12.9540629  62.9123362
  64.9295928  12.3609990  62.1874429  64.5718192  12.6492839  63.6299301
  73.1068252  12.8463736  65.0317955  73.1616861  11.8937572  64.9560432
  72.2959454  13.0023175  65.5159254  74.2559445  16.7743859  56.2696239
  73.8178875  16.0579718  55.8101876  74.9969886  17.0019973  55.7081330
  71.0460611  11.4640795  62.7908334  70.2328477  11.7634966  63.1973526
  71.5419606  11.0696484  63.5082817  73.1969189  21.4598552  64.7242599
  73.1545368  21.6859399  63.7951131  74.1131888  21.2261927  64.8728400
  76.6434823  11.9282620  71.6223228  76.9984211  12.1554093  72.4817694
  77.2906954  12.2600997  71.0000484  82.3732560  15.0501056  62.3272557
  82.2350459  15.2402652  61.3993746  82.0168779  15.8120439  62.7840608
  70.5374686   9.0359151  68.4069569  71.1774066   8.8947910  67.7092533
  69.7052217   8.7493664  68.0308171  82.4001940  17.1177583  67.3383829
  82.8338446  17.0252872  68.1866883  83.1133520  17.0935083  66.7003845
  71.3134990  18.3361581  64.5204562  72.1075589  17.8411901  64.3187137
  70.6026682  17.8079444  64.1572267  76.1329835  20.7179677  68.8716929
  76.1866857  21.2870613  69.6394645  75.2644616  20.8881562  68.5070967
  67.6217754  12.4804663  60.5964314  66.6915342  12.4189119  60.8134277
  67.7175226  11.9580616  59.8000956  67.5403303   9.0059476  63.1842556
  67.8010120   9.9204809  63.0751717  68.3620475   8.5383918  63.3339169
  69.0128228  10.4197233  70.3541381  69.6851281  10.2114595  69.7054030
  68.1858014  10.2219319  69.9146613  83.2617489  17.1601283  69.8716714
  83.4553379  18.0647094  70.1175989  83.1618107  16.7008702  70.7055299
  74.9153800   7.0459174  72.3707042  74.2681715   7.7449124  72.2771518
  75.6854815   7.4795318  72.7383290  78.3232598  17.3108026  75.4457595
  78.1718104  17.0818578  74.5287678  78.3137277  18.2678628  75.4588940
  75.0917934  14.8839939  70.4303861  76.0209994  15.0351098  70.2572829
  74.6708964  14.9723960  69.5752508  73.8906266  18.9090603  68.2002399
  73.7517352  18.5409388  69.0728337  73.1020862  19.4238243  68.0286357
  74.4854418  24.0099700  59.5427935  74.6606174  23.5387743  60.3573558
  73.7987206  24.6365466  59.7709196  75.4411481  18.2872206  65.5891237
  75.1061314  18.2472976  66.4848887  74.9415427  17.6216922  65.1161647
  69.4155725  13.6939836  71.1143818  69.2775523  12.9620075  71.7155357
  70.3260649  13.6048736  70.8328006  78.3770673  15.6328240  55.8628296
  77.7599844  14.9075068  55.7661349  77.9087161  16.3937601  55.5195371
  72.0438026  13.4059795  70.6027497  72.7537644  12.7652988  70.5614116
  72.0007334  13.6572690  71.5253678  80.0324805  20.3427149  73.5234077
  79.9737351  19.6586369  72.8564660  80.4344323  21.0846139  73.0714703
  70.7566960  10.3925013  72.4223137  70.2204317   9.9415752  73.0744733
  70.1683668  10.5270922  71.6793601  69.0515503  27.1589062  66.3167796
  69.2912102  27.7907587  66.9946814  68.2084700  26.8077103  66.6033155
  70.1669219   9.8513665  54.9849601  69.2898685   9.7302465  54.6211847
  70.6426972   9.0599743  54.7328489  80.0342212  18.3066733  71.7548056
  79.1468991  17.9692654  71.8774455  80.6040763  17.5749764  71.9916822
  61.6871359  14.6390824  65.0791108  62.3742399  14.3252554  64.4912123
  61.5319488  15.5432189  64.8058359  66.4906081   9.5281021  69.5076131
  66.4064270   8.9206690  68.7726541  65.6688787  10.0190039  69.5085628
  73.5643365  22.9668185  68.7209300  73.4913537  23.7723156  69.2328604
  73.1220758  23.1660151  67.8957321  73.3533145  22.2039955  62.2312121
  72.5700667  22.7461635  62.3250346  74.0525890  22.7213935  62.6306362
  76.6629795   8.0134584  64.8746326  77.1598494   7.2604547  64.5547397
  75.8916776   8.0498901  64.3089536  84.5159552  13.7174950  66.5164618
  84.5049429  14.5999665  66.1458551  83.6476932  13.3646501  66.3219155
  76.0242049  22.8655019  70.8767458  76.7370021  23.5002484  70.8043360
  75.5332077  22.9618885  70.0607460  77.7459576  16.7706272  62.4484750
  76.8115854  16.8907734  62.2789454  77.9236244  15.8678738  62.1844760
  73.2464764  10.1551967  64.6018011  72.8762551   9.6023008  65.2898917
  73.7423856   9.5510101  64.0493011  81.1332127  12.6123591  62.9834784
  81.5992579  13.4451583  62.9095087  81.5839627  12.1468572  63.6880042
  71.0753962  20.6149462  71.6973029  71.7763422  21.2485945  71.8502423
  70.6049077  20.9564194  70.9368668  79.2008358  18.9567412  59.9820936
  79.4768202  18.8424007  60.8914810  78.3312857  18.5584897  59.9433109
  78.8755248  13.1694070  69.5225579  78.2226698  13.4169977  68.8678032
  79.2535628  12.3558208  69.1888057  75.8362422  23.2053763  63.6253750
  76.0184817  22.3875419  64.0881502  76.6595408  23.4221455  63.1878640
  76.1704588  22.1321948  60.8868798  76.6992354  21.6214403  60.2738960
  76.4332807  21.8164478  61.7514331  74.9242821  13.9113881  76.0091616
  74.2483458  13.8108010  76.6793992  75.7470455  13.7553095  76.4727614
  66.6721680  20.1485817  68.6304132  67.2575117  19.4029505  68.7632036
  66.4746519  20.4589774  69.5140796  69.5260336  23.1837065  63.6466574
  68.8570711  23.6683193  63.1630614  69.3873205  23.4306285  64.5609953
  61.2639335  12.7191418  67.3508575  61.3023435  12.1855008  68.1445693
  60.7579628  12.1926623  66.7319552  73.6665604  25.2180808  70.2449232
  74.2183912  25.3812430  71.0098318  74.0071798  25.8085246  69.5729257
  68.6430097   7.5655958  70.8471117  68.7071424   8.4270789  70.4348515
  68.5797218   6.9529960  70.1143476  68.1182370   9.6379091  74.4944151
  68.7454409   9.2556168  75.1081676  67.2610289   9.4193293  74.8599844
  78.5176478  20.0442066  76.0997887  79.0616382  20.6572024  75.6052842
  77.9363323  20.6021644  76.6164900  64.8947913  11.4455520  60.4262506
  65.1901354  10.5366198  60.3729560  63.9935948  11.4243259  60.1043509
  76.8033991  23.1662784  67.2312915  76.6785131  22.3652524  66.7223860
  77.4613083  23.6608977  66.7426885  68.4242160   9.5211516  66.4090055
  67.7028745  10.1347484  66.2697528  69.2135415  10.0569281  66.3306701
  78.8668900  20.9671804  68.8592465  77.9199235  20.8477155  68.7870791
  79.2151673  20.0794302  68.9418726  71.2268473   6.8565943  72.6830707
  71.7502875   7.1028239  73.4457016  71.0080806   7.6885978  72.2633844
  66.6235754   9.1269617  60.5501831  66.2948460   8.2466996  60.3676937
  66.9775125   9.0717286  61.4378221  75.8715333  20.7624520  65.0596817
  75.7240296  19.8341228  65.2404387  76.6968827  20.7844611  64.5753892
  69.7377577   9.4142587  60.9177309  70.0773650   9.9428509  60.1955917
  70.1849698   9.7522993  61.6935876  79.4749455  21.5853079  66.1461690
  80.3996002  21.3795940  66.0086141  79.3064758  21.3369480  67.0551031
  72.4321018   7.7979638  70.3680377  72.0917839   6.9987451  70.7701057
  71.7260024   8.0981349  69.7957210  71.7245725   7.9117209  59.1170602
  72.4454087   8.2898462  58.6134319  71.1011029   8.6306086  59.2205580
  75.8676847   8.6162358  60.0528934  76.0840462   9.4986996  59.7517762
  75.3870915   8.2248571  59.3234576  70.6076069  11.5748071  66.6299679
  70.4620650  11.8888374  67.5223960  70.1301272  12.1932971  66.0770577
  72.4672452   8.5650619  66.6780568  72.4534020   7.6691712  66.3412866
  73.1844880   8.5721283  67.3118854  74.3198582   8.9987959  68.7233696
  74.0616360   9.9205030  68.7218026  73.7883623   8.6018394  69.4134160
  79.2644771  22.1038746  61.5023781  79.4381649  21.5385169  60.7497634
  79.7573662  22.9039641  61.3203271  65.0821731  14.1153415  69.5687340
  64.5375199  14.8913223  69.7007614  65.9601081  14.4624220  69.4106461
  71.8709348   7.4464999  61.9468138  71.9925259   6.5181646  62.1459026
  71.5811390   7.4603685  61.0346454  85.1184162  14.8675169  63.1214081
  85.5615308  14.1182495  62.7233204  84.2410673  14.8585306  62.7387813
  80.2519944  21.4205511  58.6020679  80.9470848  22.0412203  58.8207994
  80.5943094  20.5700862  58.8773057  65.8687753  13.2423312  72.4617497
  65.1269489  13.3905947  73.0482127  65.5480497  13.5031577  71.5984246
  82.1511367  18.8705216  60.1308010  82.6762691  19.2092489  59.4057330
  82.0633719  17.9352232  59.9471145  73.8131415  22.7839290  72.2597887
  74.1218542  22.5388437  73.1320586  74.6106897  22.9885928  71.7716757
  73.8352027  24.9377200  64.4903263  73.3957018  24.4453578  65.1836120
  74.5860144  24.3950167  64.2495339  66.3144366  21.1288740  64.4927891
  67.1402386  20.8292512  64.1126535  65.9638418  20.3596363  64.9417680
  71.2825900  20.4815209  66.5625565  70.6605909  19.8185914  66.2627793
  71.9530767  20.5076341  65.8799213  64.5152972  19.0475067  65.4516825
  63.6784880  18.6197241  65.2700826  64.4876617  19.2407510  66.3887616
  71.3550427   8.9596997  76.1558071  71.4038583   9.8359120  75.7735841
  71.8972941   8.4174390  75.5829714  81.8405273  19.5038120  75.4359208
  81.0500817  19.4862259  74.8963708  81.6038627  20.0426414  76.1908245
  81.9603148  16.3530586  72.7491937  82.0101153  16.1880594  73.6907459
  81.8517071  15.4857845  72.3589817  70.8439407  19.0319132  60.0384026
  70.9927527  19.7154596  59.3850698  71.6505850  19.0124222  60.5533481
  79.2506910  12.3361514  74.0651243  80.1516773  12.1967979  73.7735241
  79.3254885  12.5015969  75.0049421  73.5849716   9.7128369  72.9104430
  72.7153025  10.0061935  72.6387018  73.8209196  10.2968814  73.6311693
  83.4621345  18.7727528  72.9933958  83.1706153  19.1357508  73.8297419
  82.8493476  18.0594536  72.8147290  84.6617027  16.3380408  65.5136528
  85.4963918  16.7770212  65.6774089  84.7976156  15.8619061  64.6944774
  81.7108533  13.8960142  71.4614016  82.1862655  14.0887789  70.6532868
  80.7874098  13.9519328  71.2157400  68.5992040  15.0584310  61.0445094
  68.3538081  14.1546640  61.2425305  68.7687954  15.0601460  60.1024572
  76.2888749   5.9307986  70.4269850  76.8070693   6.6669013  70.1016339
  75.9343882   6.2371979  71.2616609  67.8687687  10.7912667  58.5431256
  67.1756932  10.8657022  57.8871292  67.6239439  10.0273011  59.0652773
  74.3434812  21.5267262  57.5095773  73.7708779  22.1457450  57.0566245
  74.9167606  22.0766624  58.0435695  80.4110202  10.7725903  69.6942322
  81.3627625  10.8724000  69.7154546  80.2413652   9.9804171  70.2040406
  78.4324581   7.8581486  69.8801723  77.8374514   8.1386499  69.1848211
  78.1474278   8.3475387  70.6518464  77.5632072  21.8104413  58.6404355
  78.4962745  21.7449974  58.8437231  77.4755285  22.6460679  58.1818888
  80.1920089  21.1270283  55.6008303  80.1133720  20.7930147  56.4944061
  81.0129755  21.6192051  55.5999775  82.8898280  13.9932022  68.8084621
  82.8574600  13.0548023  68.9944305  83.4998903  14.0716059  68.0750446
  74.7281611  12.8628075  54.8511825  75.6740715  12.7334283  54.9200244
  74.3495856  12.1242737  55.3281254  83.0392768  10.7843066  68.8542905
  82.5231817  10.0001522  68.6672833  83.9232717  10.4561782  69.0189424
  88.7074830  15.0548029  67.9490658  89.4378218  14.7933317  68.5098362
  88.0981775  14.3176751  67.9892726  86.7890127  13.1955892  68.5465109
  86.0623290  13.0611857  67.9381601  86.3737414  13.5032720  69.3521827
  74.6120303  16.9145821  76.3112482  75.5323313  17.0924420  76.5052529
  74.5769886  15.9701867  76.1592182  72.9124528  10.7878052  54.7866711
  72.0055983  10.4911164  54.8629424  73.1900509  10.4907870  53.9200997
  63.8302468  12.1084415  65.2365757  63.5105252  11.2549723  64.9440131
  63.2835896  12.3232993  65.9923724  67.6082376  14.8246856  68.9535264
  67.8268385  15.7563964  68.9723297  68.0208149  14.4654830  69.7390067
  72.4810241  10.3980062  78.3438013  72.3806968  11.3474419  78.2750104
  72.2631783  10.0698301  77.4714083  71.6823312   7.6464987  54.9278690
  72.5442476   7.9719885  55.1874507  71.8673657   6.8596483  54.4151756
  63.6990728  15.7287327  67.2058879  63.0054200  15.3141279  66.6928833
  64.4463719  15.7707863  66.6092298  72.3441511  13.8277201  77.1603074
  71.8608593  14.6277561  77.3666963  72.4302450  13.8385146  76.2070518
  65.6127471  15.6605580  65.0824894  65.5898159  15.7593268  64.1306777
  65.9228107  16.5070731  65.4042060  68.2714849  17.7181735  69.1971508
  69.2258102  17.6865678  69.1301440  68.0727372  17.2572359  70.0121734
  68.8614231  16.2882851  71.7642306  69.6807120  16.7826930  71.7877143
  69.1351038  15.3714820  71.7359873  78.6180827   8.6793604  61.1270261
  77.7306682   8.9643254  60.9090456  79.0334816   8.5187367  60.2797538
  81.9695363   8.7040125  64.8424600  82.7455753   9.1936577  65.1149217
  81.2443497   9.1298179  65.2996470  84.4067922   9.4167744  65.8998541
  85.0012412   9.1763480  65.1891849  84.4794505   8.6974874  66.5272077
  66.6265077  23.2601355  66.2141706  66.4919545  22.5001756  65.6479704
  66.2097140  23.9842255  65.7470495  77.7624040  18.4438278  55.2218281
  78.4659890  18.6488281  55.8375937  77.0386689  19.0115040  55.4867365
  78.5921851  14.1948140  61.3420551  78.5357052  14.6516691  60.5028184
  79.1450193  13.4338824  61.1643394  82.4026657   9.9837871  62.1670671
  82.1463591   9.5834507  62.9978879  81.7779525  10.6981665  62.0420810
  86.7138994  12.7233945  64.6741962  86.1538552  12.7927134  65.4473524
  86.1082498  12.5474929  63.9541458  69.7834203  24.1570672  66.4260149
  69.6666587  25.1016104  66.3238839  68.9626649  23.8544233  66.8145948
  79.6710738  18.8820808  57.2716741  80.5056342  18.4502006  57.0894216
  79.5095081  18.7102821  58.1993636  79.3256630  15.3852921  58.6373081
  79.2705434  15.2197192  57.6961525  78.7002685  16.0928954  58.7935270
  64.1149145  10.6220985  72.4634503  64.7608009  10.1119939  72.9521728
  63.9066296  11.3589667  73.0377928  76.6402537  17.6901833  77.9626643
  77.5093697  17.8642485  77.6013278  76.1609289  18.5096250  77.8402373
  72.6352755   4.8861030  58.2158399  72.6231425   5.8302870  58.3726670
  73.5276177   4.7031175  57.9217860  70.8088717  24.8098934  69.6416077
  71.7115964  24.8422544  69.9582572  70.5826087  23.8799385  69.6562413
  72.5642319  23.5629920  66.3026156  71.6137950  23.5631782  66.1890528
  72.8674805  22.8162655  65.7862190  68.4546636   7.7688602  76.5609517
  69.3178097   7.4125407  76.7712842  67.8812047   7.4302497  77.2484921
  88.2995013  29.3990459  67.3671918  88.9373423  29.2797206  66.6635258
  88.1815856  30.3471303  67.4259870  85.1084719  29.3517887  67.3033443
  84.7703231  29.2358951  66.4153978  85.9774487  28.9509052  67.2834449
  80.9671535  31.2053363  63.2930334  80.4036400  31.1143300  62.5246621
  80.8523930  30.3853268  63.7732826  85.5904502  30.5052739  73.2619648
  85.5793143  30.1105537  72.3900152  85.7525142  29.7718811  73.8553420
  78.5135967  32.7004555  66.1314554  79.3057259  32.3595379  65.7160853
  78.7532617  32.8099530  67.0516707  86.5471094  34.8724331  58.6044799
  85.8959073  35.4578411  58.2178812  87.3415456  35.4030526  58.6639836
  80.4726721  31.9613468  59.0031933  81.2457597  31.4142455  58.8644809
  80.8252120  32.8257717  59.2146394  82.3111763  33.2889850  72.2098832
  82.0201629  34.1935481  72.0945498  82.9468748  33.3306378  72.9242902
  83.2367970  30.6666699  68.8000192  83.8331542  30.4422721  68.0857155
  83.2942942  29.9251444  69.4025640  82.8092998  28.1206134  56.6350383
  83.0618519  27.5987655  55.8733846  81.8717558  27.9572280  56.7377066
  87.8536281  27.1241913  64.4425126  88.6399371  26.7061336  64.0915543
  88.1174986  28.0288005  64.6106774  88.0246359  32.5614763  59.1413783
  87.3892192  32.6349389  59.8534687  87.6943765  33.1508362  58.4632862
  93.2544708  27.0617146  65.3458105  93.9869880  26.4916363  65.5795934
  92.4984064  26.6738746  65.7864610  82.5289287  30.0234240  58.8374758
  82.4125545  29.3479143  59.5055842  82.6391547  29.5366614  58.0206911
  84.8720828  29.4844387  62.5421447  84.5079035  28.9575008  63.2534368
  85.7287944  29.0942856  62.3687932  90.7770129  20.7738720  69.8052713
  90.4453454  21.6434131  69.5813928  90.1815742  20.4575004  70.4846744
  84.5126315  24.5134287  57.5382795  84.6800717  25.3814523  57.9053267
  84.3223484  24.6761569  56.6144085  87.2701648  32.9751266  69.2048626
  86.9702371  33.8776305  69.0964433  86.9252708  32.7083449  70.0569779
  80.7214130  29.4265063  65.2385330  79.7964626  29.2941277  65.4463022
  80.9698543  30.2059282  65.7355273  90.6698792  25.4933806  66.8846063
  89.7615669  25.4249214  66.5904824  90.6186388  25.9705751  67.7127889
  84.4915536  26.9691944  58.5229462  84.3715161  27.4148995  59.3614943
  83.7968124  27.3177262  57.9643000  78.0822941  29.0698336  66.0729119
  78.2115322  29.3232815  66.9868531  77.4020392  29.6626044  65.7533774
  82.2522428  39.7395586  62.1719594  82.1746458  40.6903411  62.2508074
  81.6484072  39.3941459  62.8294520  84.7439658  26.9123452  74.8280960
  83.9672992  27.4717372  74.8183825  85.3830221  27.3980235  75.3495831
  92.5360439  23.6950244  68.6623937  91.8934819  23.9882778  68.0163732
  92.0315367  23.5803165  69.4677134  90.1900602  27.4413418  59.3509796
  91.1018458  27.6740804  59.1757494  89.6810249  28.0250462  58.7884875
  82.9986030  29.7208905  74.3898927  83.7400715  30.2593949  74.1133751
  82.2923016  30.3475194  74.5470479  88.4741370  31.8638045  72.9871089
  88.8824726  31.4220456  72.2425721  87.7518631  31.2890673  73.2405282
  84.8272440  26.8010652  70.3604646  85.6733635  27.2250066  70.5039295
  84.7671078  26.1444277  71.0543209  88.7970184  32.4239236  66.7423378
  88.1679047  32.5884950  66.0399446  88.4095847  32.8380846  67.5134342
  92.6759416  33.3593674  64.0967742  91.9910455  33.7392575  63.5464775
  92.7603266  33.9689001  64.8299689  87.9771885  24.4615021  72.0185820
  87.7332817  25.2157081  71.4820095  88.2531816  24.8400368  72.8533067
  89.9310348  31.0053633  70.6963085  90.1427243  31.6485393  70.0197466
  89.8840096  30.1715949  70.2285015  87.5336577  23.6171454  67.5999657
  86.6721056  23.9152707  67.8916395  87.5599012  23.8341852  66.6680690
  84.3498146  32.1613644  64.0073463  84.8136492  32.4401347  63.2178085
  84.0854944  31.2597089  63.8246554  81.2422227  31.7085126  66.9453226
  81.8123584  32.1372394  66.3070711  81.8330339  31.4267710  67.6437412
  83.2867032  28.2836797  60.8163028  83.9891076  28.7357840  61.2836954
  82.9547661  27.6420615  61.4442921  81.7347394  26.8748553  75.1914237
  81.1046055  27.5564834  75.4249634  81.6283482  26.7631635  74.2467376
  77.0292366  26.5420349  66.1180162  76.2391420  26.7977878  65.6420272
  77.5203614  27.3568687  66.2232202  91.0456176  33.8825588  68.8685442
  91.8673620  33.4805776  68.5868124  91.0418579  33.7793823  69.8201558
  78.9807112  26.9064928  63.0763638  78.1838275  27.0183623  63.5947134
  78.7532704  27.2451581  62.2104529  84.8112779  33.4309632  71.0246153
  84.8757212  33.8930039  71.8604325  84.1023703  32.8006997  71.1528463
  75.3130069  26.7950840  68.5495152  75.5638108  27.6797850  68.8152728
  75.8489618  26.6155441  67.7770244  99.1362169  30.2264337  65.2170414
  98.3825877  29.6571735  65.0614418  99.2709710  30.1927001  66.1641049
  84.5260797  35.0977739  60.8925133  84.3906472  35.9429275  61.3209981
  85.0670610  35.2997017  60.1291067  81.0128137  21.1769319  77.5539488
  80.6195082  20.6235518  78.2287133  81.8294277  21.4879897  77.9446006
  77.9790194  32.6153177  61.4653058  78.4914715  33.4096427  61.6158623
  78.6312907  31.9179468  61.3986660  79.7885079  35.7318933  63.5475812
  79.9651707  36.6536898  63.3596795  80.5841913  35.4177353  63.9770191
  83.9296098  22.5927198  75.1459745  84.6705811  23.1934351  75.0664208
  84.1614020  21.8504836  74.5877788  79.0737436  27.7783565  73.4237975
  78.9590951  26.8768823  73.7245074  78.2181953  28.0247262  73.0722791
  86.1529273  35.7201306  75.0225475  85.7093128  34.9337684  74.7046380
  86.8146487  35.9080456  74.3569366  80.9116395  37.2497107  69.5486154
  81.4623820  37.1214171  68.7763148  80.0727870  37.5491996  69.1981047
  88.2510511  36.0004106  73.0506877  88.2328987  36.8212987  72.5587146
  89.1730432  35.8758181  73.2757018  84.7083566  33.5148235  73.8930385
  85.2411902  32.7536523  73.6629693  84.1797647  33.2221887  74.6354539
  87.8753261  18.6208301  69.4224027  87.5317530  19.5109943  69.3463137
  88.2432223  18.4309959  68.5593612  75.9439111  30.9441831  62.2412629
  76.7814333  31.3538840  62.0246337  76.1217379  30.0041274  62.2112823
  87.8403543  28.6116912  57.9296462  87.3250167  29.3821517  58.1684849
  87.5680852  27.9382048  58.5529523  85.4250654  23.4566613  62.9881700
  84.5692251  23.0673463  62.8087339  85.8377606  23.5358574  62.1281486
  86.9549801  20.9912956  67.3873260  86.4514597  20.9543091  66.5741065
  87.2480408  21.9005699  67.4469917  83.1992687  21.0751686  66.3939442
  84.0645684  20.8794495  66.0345331  83.2670196  20.8462038  67.3208798
  92.8137817  31.3649267  59.8649635  92.0367260  31.0260426  59.4204797
  93.4929298  31.3701890  59.1904600  87.6289846  26.4844004  59.7556243
  87.3239982  26.7990153  60.6066386  88.5820289  26.5625424  59.7983576
  86.0736278  32.6434228  61.4049197  85.5457640  31.9086987  61.0922434
  85.5723781  33.4208904  61.1589165  91.0529124  30.8383248  66.5216243
  90.3952799  31.5282509  66.6096372  91.8569524  31.2279680  66.8650230
  80.8055006  23.3053894  63.7655809  81.3798758  23.0829075  63.0329001
  81.3925988  23.3742588  64.5184410  89.8634583  29.1927621  64.5720185
  90.3766465  29.8257613  65.0741895  90.5135807  28.5928816  64.2063545
  81.1324593  25.3358355  57.7851694  80.2961905  25.6733041  58.1060969
  80.9929363  25.2007335  56.8478831  83.1077674  20.1795143  62.4930878
  82.4542086  19.8644160  61.8687493  83.0658148  19.5570883  63.2190701
  84.2188879  30.4614438  54.4084170  83.3115940  30.2303691  54.6075319
  84.7159911  29.6652057  54.5958152  87.1256957  39.1711945  57.3280856
  86.4518656  39.4743642  57.9365814  87.5122779  39.9741025  56.9786313
  86.3415414  26.6677076  66.8178526  85.4237975  26.8892023  66.6600214
  86.7575558  26.7423387  65.9590233  87.1250462  28.0668492  61.9481206
  87.8722281  28.5789889  61.6388328  87.3942051  27.7452545  62.8085599
  85.3977112  30.5627033  58.9308160  84.4888331  30.2786065  59.0280630
  85.4272196  30.9826111  58.0711467  90.6296379  34.1733622  62.6999328
  90.1758706  33.3324532  62.7564518  89.9990346  34.8095021  63.0374108
  89.5729299  25.1025608  63.9299995  88.8352056  24.5902994  64.2610238
  89.8256072  24.6625990  63.1183272  89.0729319  36.0110119  63.6349146
  89.3652293  36.5715176  62.9161511  89.5827939  36.3038680  64.3902305
  89.6740926  17.8801860  64.5241764  89.9799803  17.0199224  64.2367679
  90.3993531  18.4719480  64.3240758  75.9665282  28.2832547  62.9123362
  75.7689682  27.6901907  62.1874429  75.4111946  27.9784757  63.6299301
  83.9462006  28.1755653  65.0317955  84.0010616  27.2229490  64.9560432
  83.1353208  28.3315092  65.5159254  85.0953200  32.1035776  56.2696239
  84.6572630  31.3871635  55.8101876  85.8363641  32.3311891  55.7081330
  81.8854366  26.7932713  62.7908334  81.0722231  27.0926884  63.1973526
  82.3813360  26.3988402  63.5082817  84.0362944  36.7890470  64.7242599
  83.9939123  37.0151316  63.7951131  84.9525643  36.5553845  64.8728400
  87.4828578  27.2574537  71.6223228  87.8377965  27.4846011  72.4817694
  88.1300709  27.5892914  71.0000484  93.2126315  30.3792973  62.3272557
  93.0744213  30.5694569  61.3993746  92.8562533  31.1412356  62.7840608
  81.3768441  24.3651069  68.4069569  82.0167820  24.2239828  67.7092533
  80.5445971  24.0785582  68.0308171  93.2395694  32.4469500  67.3383829
  93.6732201  32.3544789  68.1866883  93.9527275  32.4227001  66.7003845
  82.1528745  33.6653499  64.5204562  82.9469343  33.1703819  64.3187137
  81.4420437  33.1371362  64.1572267  86.9723589  36.0471594  68.8716929
  87.0260611  36.6162531  69.6394645  86.1038370  36.2173480  68.5070967
  78.4611508  27.8096581  60.5964314  77.5309096  27.7481036  60.8134277
  78.5568980  27.2872533  59.8000956  78.3797057  24.3351394  63.1842556
  78.6403874  25.2496727  63.0751717  79.2014229  23.8675836  63.3339169
  79.8521982  25.7489151  70.3541381  80.5245036  25.5406513  69.7054030
  79.0251769  25.5511237  69.9146613  94.1011244  32.4893201  69.8716714
  94.2947134  33.3939012  70.1175989  94.0011862  32.0300620  70.7055299
  85.7547554  22.3751092  72.3707042  85.1075469  23.0741041  72.2771518
  86.5248570  22.8087236  72.7383290  89.1626352  32.6399944  75.4457595
  89.0111859  32.4110495  74.5287678  89.1531032  33.5970545  75.4588940
  85.9311689  30.2131857  70.4303861  86.8603749  30.3643016  70.2572829
  85.5102719  30.3015877  69.5752508  84.7300021  34.2382521  68.2002399
  84.5911106  33.8701305  69.0728337  83.9414617  34.7530160  68.0286357
  85.3248173  39.3391617  59.5427935  85.4999928  38.8679661  60.3573558
  84.6380961  39.9657384  59.7709196  86.2805236  33.6164124  65.5891237
  85.9455068  33.5764894  66.4848887  85.7809181  32.9508840  65.1161647
  80.2549480  29.0231754  71.1143818  80.1169278  28.2911992  71.7155357
  81.1654403  28.9340654  70.8328006  89.2164427  30.9620158  55.8628296
  88.5993598  30.2366986  55.7661349  88.7480916  31.7229518  55.5195371
  82.8831780  28.7351713  70.6027497  83.5931399  28.0944905  70.5614116
  82.8401089  28.9864608  71.5253678  90.8718559  35.6719066  73.5234077
  90.8131105  34.9878286  72.8564660  91.2738077  36.4138056  73.0714703
  81.5960714  25.7216931  72.4223137  81.0598071  25.2707669  73.0744733
  81.0077423  25.8562840  71.6793601  79.8909258  42.4880980  66.3167796
  80.1305856  43.1199504  66.9946814  79.0478454  42.1369020  66.6033155
  81.0062973  25.1805582  54.9849601  80.1292440  25.0594383  54.6211847
  81.4820726  24.3891661  54.7328489  90.8735966  33.6358650  71.7548056
  89.9862745  33.2984572  71.8774455  91.4434517  32.9041681  71.9916822
  72.5265113  29.9682742  65.0791108  73.2136153  29.6544472  64.4912123
  72.3713242  30.8724107  64.8058359  77.3299836  24.8572939  69.5076131
  77.2458024  24.2498608  68.7726541  76.5082542  25.3481957  69.5085628
  84.4037120  38.2960103  68.7209300  84.3307291  39.1015074  69.2328604
  83.9614513  38.4952068  67.8957321  84.1926899  37.5331873  62.2312121
  83.4094421  38.0753553  62.3250346  84.8919644  38.0505852  62.6306362
  87.5023549  23.3426502  64.8746326  87.9992249  22.5896464  64.5547397
  86.7310531  23.3790819  64.3089536  95.3553307  29.0466868  66.5164618
  95.3443183  29.9291583  66.1458551  94.4870686  28.6938418  66.3219155
  86.8635803  38.1946937  70.8767458  87.5763775  38.8294401  70.8043360
  86.3725832  38.2910803  70.0607460  88.5853330  32.0998189  62.4484750
  87.6509609  32.2199652  62.2789454  88.7629999  31.1970656  62.1844760
  84.0858518  25.4843885  64.6018011  83.7156306  24.9314925  65.2898917
  84.5817611  24.8802019  64.0493011  91.9725881  27.9415509  62.9834784
  92.4386334  28.7743500  62.9095087  92.4233382  27.4760490  63.6880042
  81.9147717  35.9441380  71.6973029  82.6157176  36.5777863  71.8502423
  81.4442832  36.2856112  70.9368668  90.0402113  34.2859330  59.9820936
  90.3161956  34.1715924  60.8914810  89.1706611  33.8876815  59.9433109
  89.9442544  20.3096096  67.0225685  89.0305624  20.5400322  67.1907892
  90.3735646  20.3934540  67.8739718  89.7149003  28.4985988  69.5225579
  89.0620453  28.7461895  68.8678032  90.0929383  27.6850126  69.1888057
  86.6756177  38.5345681  63.6253750  86.8578571  37.7167337  64.0881502
  87.4989163  38.7513373  63.1878640  87.0098342  37.4613866  60.8868798
  87.5386109  36.9506320  60.2738960  87.2726562  37.1456396  61.7514331
  85.7636576  29.2405799  76.0091616  85.0877213  29.1399928  76.6793992
  86.5864210  29.0845012  76.4727614  77.5115435  35.4777735  68.6304132
  78.0968872  34.7321423  68.7632036  77.3140273  35.7881692  69.5140796
  80.3654090  38.5128983  63.6466574  79.6964465  38.9975110  63.1630614
  80.2266960  38.7598203  64.5609953  72.1033090  28.0483335  67.3508575
  72.1417189  27.5146926  68.1445693  71.5973382  27.5218541  66.7319552
  84.5059359  40.5472726  70.2449232  85.0577667  40.7104348  71.0098318
  84.8465552  41.1377164  69.5729257  79.4823852  22.8947876  70.8471117
  79.5465178  23.7562707  70.4348515  79.4190972  22.2821878  70.1143476
  78.9576124  24.9671008  74.4944151  79.5848163  24.5848086  75.1081676
  78.1004043  24.7485210  74.8599844  89.3570233  35.3733984  76.0997887
  89.9010137  35.9863942  75.6052842  88.7757078  35.9313562  76.6164900
  75.7341667  26.7747438  60.4262506  76.0295108  25.8658116  60.3729560
  74.8329703  26.7535177  60.1043509  87.6427746  38.4954702  67.2312915
  87.5178885  37.6944441  66.7223860  88.3006837  38.9900895  66.7426885
  79.2635914  24.8503434  66.4090055  78.5422500  25.4639402  66.2697528
  80.0529170  25.3861199  66.3306701  89.7062654  36.2963722  68.8592465
  88.7592990  36.1769073  68.7870791  90.0545427  35.4086220  68.9418726
  82.0662228  22.1857861  72.6830707  82.5896629  22.4320157  73.4457016
  81.8474561  23.0177895  72.2633844  77.4629509  24.4561535  60.5501831
  77.1342215  23.5758914  60.3676937  77.8168879  24.4009204  61.4378221
  86.7109088  36.0916438  65.0596817  86.5634050  35.1633145  65.2404387
  87.5362581  36.1136529  64.5753892  80.5771332  24.7434505  60.9177309
  80.9167404  25.2720426  60.1955917  81.0243452  25.0814911  61.6935876
  90.3143209  36.9144997  66.1461690  91.2389757  36.7087858  66.0086141
  90.1458513  36.6661398  67.0551031  83.2714773  23.1271556  70.3680377
  82.9311593  22.3279369  70.7701057  82.5653779  23.4273267  69.7957210
  83.9231245  20.2120868  68.8207700  84.7457314  19.7381346  68.6986590
  84.1669308  20.9911352  69.3206386  82.5639479  23.2409127  59.1170602
  83.2847842  23.6190379  58.6134319  81.9404783  23.9598003  59.2205580
  86.7070602  23.9454276  60.0528934  86.9234216  24.8278913  59.7517762
  86.2264669  23.5540489  59.3234576  81.4469823  26.9039989  66.6299679
  81.3014404  27.2180292  67.5223960  80.9695027  27.5224889  66.0770577
  83.3066206  23.8942537  66.6780568  83.2927775  22.9983630  66.3412866
  84.0238634  23.9013200  67.3118854  85.1592337  24.3279877  68.7233696
  84.9010115  25.2496948  68.7218026  84.6277377  23.9310311  69.4134160
  90.1038526  37.4330664  61.5023781  90.2775403  36.8677087  60.7497634
  90.5967417  38.2331559  61.3203271  75.9215485  29.4445333  69.5687340
  75.3768954  30.2205141  69.7007614  76.7994835  29.7916138  69.4106461
  82.7103102  22.7756917  61.9468138  82.8319013  21.8473563  62.1459026
  82.4205144  22.7895603  61.0346454  85.5794292  20.4611827  65.0834858
  85.6015989  20.5251161  64.1286838  85.9962351  19.6216336  65.2775364
  95.9577917  30.1967087  63.1214081  96.4009063  29.4474412  62.7233204
  95.0804427  30.1877223  62.7387813  91.0913698  36.7497428  58.6020679
  91.7864603  37.3704121  58.8207994  91.4336848  35.8992780  58.8773057
  76.7081507  28.5715229  72.4617497  75.9663243  28.7197865  73.0482127
  76.3874252  28.8323495  71.5984246  92.9905121  34.1997134  60.1308010
  93.5156445  34.5384407  59.4057330  92.9027474  33.2644149  59.9471145
  84.6525170  38.1131208  72.2597887  84.9612296  37.8680354  73.1320586
  85.4500652  38.3177846  71.7716757  84.6745782  40.2669117  64.4903263
  84.2350772  39.7745496  65.1836120  85.4253899  39.7242085  64.2495339
  77.1538121  36.4580658  64.4927891  77.9796141  36.1584430  64.1126535
  76.8032173  35.6888281  64.9417680  82.1219654  35.8107126  66.5625565
  81.4999663  35.1477831  66.2627793  82.7924521  35.8368258  65.8799213
  75.3546726  34.3766985  65.4516825  74.5178634  33.9489159  65.2700826
  75.3270371  34.5699428  66.3887616  82.1944182  24.2888914  76.1558071
  82.2432337  25.1651037  75.7735841  82.7366696  23.7466307  75.5829714
  92.6799027  34.8330038  75.4359208  91.8894571  34.8154177  74.8963708
  92.4432382  35.3718331  76.1908245  92.7996902  31.6822504  72.7491937
  92.8494907  31.5172511  73.6907459  92.6910826  30.8149763  72.3589817
  81.6833161  34.3611050  60.0384026  81.8321281  35.0446514  59.3850698
  82.4899605  34.3416140  60.5533481  90.0900665  27.6653432  74.0651243
  90.9910528  27.5259897  73.7735241  90.1648639  27.8307887  75.0049421
  84.4243470  25.0420287  72.9104430  83.5546779  25.3353853  72.6387018
  84.6602950  25.6260732  73.6311693  94.3015099  34.1019446  72.9933958
  94.0099907  34.4649426  73.8297419  93.6887230  33.3886454  72.8147290
  95.5010781  31.6672325  65.5136528  96.3357673  32.1062129  65.6774089
  95.6369910  31.1910979  64.6944774  92.5502287  29.2252060  71.4614016
  93.0256409  29.4179706  70.6532868  91.6267853  29.2811246  71.2157400
  79.4385794  30.3876227  61.0445094  79.1931836  29.4838557  61.2425305
  79.6081709  30.3893378  60.1024572  87.1282504  21.2599904  70.4269850
  87.6464448  21.9960931  70.1016339  86.7737637  21.5663897  71.2616609
  78.7081442  26.1204585  58.5431256  78.0150687  26.1948940  57.8871292
  78.4633193  25.3564929  59.0652773  87.3795098  17.6800186  65.9470747
  87.6596852  17.0123375  66.5731173  88.1645705  17.8729282  65.4345411
  85.1828567  36.8559180  57.5095773  84.6102534  37.4749367  57.0566245
  85.7561360  37.4058542  58.0435695  91.2503956  26.1017820  69.6942322
  92.2021379  26.2015918  69.7154546  91.0807407  25.3096089  70.2040406
  89.2718336  23.1873403  69.8801723  88.6768268  23.4678416  69.1848211
  88.9868033  23.6767304  70.6518464  88.4025826  37.1396330  58.6404355
  89.3356500  37.0741892  58.8437231  88.3149039  37.9752597  58.1818888
  91.0313843  36.4562201  55.6008303  90.9527475  36.1222064  56.4944061
  91.8523510  36.9483969  55.5999775  93.7292034  29.3223940  68.8084621
  93.6968354  28.3839941  68.9944305  94.3392658  29.4007977  68.0750446
  85.5675365  28.1919993  54.8511825  86.5134470  28.0626201  54.9200244
  85.1889610  27.4534655  55.3281254  93.8786523  26.1134983  68.8542905
  93.3625571  25.3293440  68.6672833  94.7626471  25.7853700  69.0189424
  91.5397250  19.8575999  64.8138717  91.3422071  19.5491087  65.6982049
  92.1496955  20.5837638  64.9436647  99.5468584  30.3839947  67.9490658
 100.2771973  30.1225235  68.5098362  98.9375530  29.6468669  67.9892726
  97.6283881  28.5247809  68.5465109  96.9017045  28.3903774  67.9381601
  97.2131168  28.8324638  69.3521827  85.4514058  32.2437739  76.3112482
  86.3717067  32.4216338  76.5052529  85.4163641  31.2993784  76.1592182
  83.7518282  26.1169969  54.7866711  82.8449738  25.8203082  54.8629424
  84.0294263  25.8199787  53.9200997  74.6696223  27.4376333  65.2365757
  74.3499007  26.5841641  64.9440131  74.1229651  27.6524911  65.9923724
  78.4476130  30.1538774  68.9535264  78.6662140  31.0855882  68.9723297
  78.8601904  29.7946748  69.7390067  85.3680348  20.6606859  60.9410952
  84.5581076  20.3153944  61.3166198  86.0564765  20.3514403  61.5298564
  87.2970896  19.7384906  62.5635249  87.8501935  20.1580359  63.2225272
  87.5340983  18.8120654  62.6058205  83.3203995  25.7271979  78.3438013
  83.2200722  26.6766336  78.2750104  83.1025538  25.3990218  77.4714083
  82.5217067  22.9756905  54.9278690  83.3836231  23.3011803  55.1874507
  82.7067411  22.1888400  54.4151756  74.5384483  31.0579244  67.2058879
  73.8447954  30.6433197  66.6928833  75.2857474  31.0999781  66.6092298
  90.6749703  21.8485431  62.0713913  90.0948372  22.5070235  61.6891965
  90.4085636  21.0262776  61.6601330  89.1253270  21.2490489  64.2735233
  89.6253048  21.3607023  63.4649552  89.7688878  20.9451542  64.9136042
  83.1835266  29.1569118  77.1603074  82.7002347  29.9569478  77.3666963
  83.2696205  29.1677063  76.2070518  76.4521225  30.9897498  65.0824894
  76.4291913  31.0885185  64.1306777  76.7621862  31.8362649  65.4042060
  79.1108603  33.0473653  69.1971508  80.0651857  33.0157595  69.1301440
  78.9121127  32.5864277  70.0121734  79.7007985  31.6174769  71.7642306
  80.5200874  32.1118848  71.7877143  79.9744793  30.7006737  71.7359873
  89.4574581  24.0085521  61.1270261  88.5700436  24.2935172  60.9090456
  89.8728570  23.8479285  60.2797538  92.8089117  24.0332042  64.8424600
  93.5849508  24.5228495  65.1149217  92.0837252  24.4590097  65.2996470
  95.2461676  24.7459662  65.8998541  95.8406167  24.5055398  65.1891849
  95.3188260  24.0266792  66.5272077  77.4658832  38.5893273  66.2141706
  77.3313300  37.8293673  65.6479704  77.0490894  39.3134172  65.7470495
  88.6017795  33.7730196  55.2218281  89.3053645  33.9780199  55.8375937
  87.8780444  34.3406958  55.4867365  89.4315605  29.5240057  61.3420551
  89.3750806  29.9808609  60.5028184  89.9843948  28.7630742  61.1643394
  93.2420411  25.3129789  62.1670671  92.9857345  24.9126425  62.9978879
  92.6173279  26.0273583  62.0420810  97.5532749  28.0525862  64.6741962
  96.9932307  28.1219052  65.4473524  96.9476252  27.8766847  63.9541458
  80.6227958  39.4862590  66.4260149  80.5060342  40.4308022  66.3238839
  79.8020404  39.1836151  66.8145948  90.5104492  34.2112725  57.2716741
  91.3450096  33.7793924  57.0894216  90.3488835  34.0394739  58.1993636
  90.1650384  30.7144839  58.6373081  90.1099188  30.5489110  57.6961525
  89.5396440  31.4220871  58.7935270  74.9542899  25.9512903  72.4634503
  75.6001763  25.4411857  72.9521728  74.7460051  26.6881585  73.0377928
  87.4796292  33.0193750  77.9626643  88.3487451  33.1934403  77.6013278
  87.0003043  33.8388167  77.8402373  83.4746510  20.2152948  58.2158399
  83.4625180  21.1594787  58.3726670  84.3669932  20.0323093  57.9217860
  81.6482472  40.1390851  69.6416077  82.5509719  40.1714462  69.9582572
  81.4219842  39.2091302  69.6562413  83.4036074  38.8921838  66.3026156
  82.4531705  38.8923700  66.1890528  83.7068560  38.1454573  65.7862190
  87.2898629  16.8095724  62.4704336  86.5231025  16.2554211  62.6161018
  87.7009334  16.8817593  63.3318487  79.2940390  23.0980520  76.5609517
  80.1571852  22.7417325  76.7712842  78.7205801  22.7594415  77.2484921
  99.1388767  44.7282376  67.3671918  99.7767177  44.6089124  66.6635258
  99.0209610  45.6763220  67.4259870  95.9478474  44.6809804  67.3033443
  95.6096985  44.5650869  66.4153978  96.8168242  44.2800970  67.2834449
  91.8065289  46.5345281  63.2930334  91.2430154  46.4435218  62.5246621
  91.6917684  45.7145185  63.7732826  96.4298257  45.8344656  73.2619648
  96.4186897  45.4397454  72.3900152  96.5918896  45.1010729  73.8553420
  89.3529721  48.0296472  66.1314554  90.1451013  47.6887297  65.7160853
  89.5926371  48.1391448  67.0516707  97.3864848  50.2016249  58.6044799
  96.7352828  50.7870329  58.2178812  98.1809211  50.7322443  58.6639836
  91.3120475  47.2905386  59.0031933  92.0851351  46.7434373  58.8644809
  91.6645874  48.1549635  59.2146394  93.1505518  48.6181768  72.2098832
  92.8595384  49.5227399  72.0945498  93.7862502  48.6598296  72.9242902
  94.0761725  45.9958617  68.8000192  94.6725297  45.7714639  68.0857155
  94.1336696  45.2543362  69.4025640  93.6486753  43.4498052  56.6350383
  93.9012274  42.9279573  55.8733846  92.7111312  43.2864197  56.7377066
  98.6930036  42.4533830  64.4425126  99.4793125  42.0353253  64.0915543
  98.9568740  43.3579922  64.6106774  98.8640113  47.8906681  59.1413783
  98.2285946  47.9641307  59.8534687  98.5337520  48.4800279  58.4632862
 104.0938463  42.3909063  65.3458105 104.8263635  41.8208280  65.5795934
 103.3377819  42.0030664  65.7864610  93.3683042  45.3526158  58.8374758
  93.2519300  44.6771061  59.5055842  93.4785302  44.8658532  58.0206911
  95.7114583  44.8136305  62.5421447  95.3472790  44.2866926  63.2534368
  96.5681699  44.4234774  62.3687932 101.6163883  36.1030638  69.8052713
 101.2847208  36.9726048  69.5813928 101.0209497  35.7866922  70.4846744
  95.3520070  39.8426205  57.5382795  95.5194472  40.7106441  57.9053267
  95.1617239  40.0053486  56.6144085  98.1095403  48.3043184  69.2048626
  97.8096126  49.2068222  69.0964433  97.7646462  48.0375367  70.0569779
  91.5607884  44.7556980  65.2385330  90.6358381  44.6233194  65.4463022
  91.8092297  45.5351200  65.7355273 101.5092547  40.8225724  66.8846063
 100.6009424  40.7541132  66.5904824 101.4580142  41.2997669  67.7127889
  95.3309291  42.2983862  58.5229462  95.2108916  42.7440913  59.3614943
  94.6361879  42.6469180  57.9643000  88.9216695  44.3990254  66.0729119
  89.0509076  44.6524733  66.9868531  88.2414147  44.9917962  65.7533774
  93.0916183  55.0687504  62.1719594  93.0140212  56.0195329  62.2508074
  92.4877826  54.7233376  62.8294520  95.5833412  42.2415369  74.8280960
  94.8066746  42.8009289  74.8183825  96.2223975  42.7272152  75.3495831
 103.3754193  39.0242162  68.6623937 102.7328573  39.3174695  68.0163732
 102.8709122  38.9095082  69.4677134 101.0294357  42.7705335  59.3509796
 101.9412213  43.0032722  59.1757494 100.5204004  43.3542379  58.7884875
  93.8379785  45.0500823  74.3898927  94.5794469  45.5885867  74.1133751
  93.1316770  45.6767111  74.5470479  99.3135124  47.1929963  72.9871089
  99.7218480  46.7512374  72.2425721  98.5912386  46.6182591  73.2405282
  95.6666194  42.1302570  70.3604646  96.5127390  42.5541983  70.5039295
  95.6064832  41.4736194  71.0543209  99.6363939  47.7531154  66.7423378
  99.0072801  47.9176868  66.0399446  99.2489601  48.1672763  67.5134342
 103.5153171  48.6885592  64.0967742 102.8304209  49.0684493  63.5464775
 103.5997020  49.2980918  64.8299689  98.8165640  39.7906938  72.0185820
  98.5726572  40.5448999  71.4820095  99.0925570  40.1692286  72.8533067
 100.7704102  46.3345551  70.6963085 100.9820998  46.9777310  70.0197466
 100.7233851  45.5007867  70.2285015  98.3730331  38.9463371  67.5999657
  97.5114810  39.2444625  67.8916395  98.3992766  39.1633770  66.6680690
  95.1891901  47.4905562  64.0073463  95.6530246  47.7693265  63.2178085
  94.9248699  46.5889006  63.8246554  92.0815982  47.0377043  66.9453226
  92.6517339  47.4664312  66.3070711  92.6724094  46.7559628  67.6437412
  94.1260787  43.6128714  60.8163028  94.8284830  44.0649758  61.2836954
  93.7941415  42.9712533  61.4442921  92.5741148  42.2040471  75.1914237
  91.9439809  42.8856752  75.4249634  92.4677236  42.0923552  74.2467376
  87.8686121  41.8712267  66.1180162  87.0785175  42.1269795  65.6420272
  88.3597368  42.6860605  66.2232202 101.8849930  49.2117506  68.8685442
 102.7067374  48.8097693  68.5868124 101.8812333  49.1085740  69.8201558
  89.8200866  42.2356846  63.0763638  89.0232030  42.3475540  63.5947134
  89.5926458  42.5743498  62.2104529  95.6506534  48.7601549  71.0246153
  95.7150966  49.2221957  71.8604325  94.9417458  48.1298914  71.1528463
  86.1523824  42.1242757  68.5495152  86.4031862  43.0089767  68.8152728
  86.6883372  41.9447359  67.7770244  95.3654552  50.4269657  60.8925133
  95.2300226  51.2721193  61.3209981  95.9064364  50.6288934  60.1291067
  91.8521891  36.5061237  77.5539488  91.4588837  35.9527435  78.2287133
  92.6688031  36.8171815  77.9446006  88.8183949  47.9445095  61.4653058
  89.3308469  48.7388345  61.6158623  89.4706662  47.2471385  61.3986660
  90.6278834  51.0610851  63.5475812  90.8045462  51.9828816  63.3596795
  91.4235667  50.7469270  63.9770191  94.7689852  37.9219116  75.1459745
  95.5099566  38.5226269  75.0664208  95.0007775  37.1796754  74.5877788
  89.9131190  43.1075483  73.4237975  89.7984705  42.2060740  73.7245074
  89.0575708  43.3539180  73.0722791  96.9923028  51.0493223  75.0225475
  96.5486882  50.2629602  74.7046380  97.6540241  51.2372374  74.3569366
  91.7510149  52.5789025  69.5486154  92.3017574  52.4506088  68.7763148
  90.9121625  52.8783914  69.1981047  99.0904266  51.3296023  73.0506877
  99.0722741  52.1504904  72.5587146 100.0124186  51.2050098  73.2757018
  95.5477320  48.8440153  73.8930385  96.0805657  48.0828441  73.6629693
  95.0191401  48.5513805  74.6354539  98.7147015  33.9500219  69.4224027
  98.3711284  34.8401860  69.3463137  99.0825978  33.7601876  68.5593612
  86.7832866  46.2733749  62.2412629  87.6208088  46.6830758  62.0246337
  86.9611133  45.3333191  62.2112823  98.6797298  43.9408830  57.9296462
  98.1643921  44.7113434  58.1684849  98.4074606  43.2673966  58.5529523
  96.2644409  38.7858531  62.9881700  95.4086005  38.3965381  62.8087339
  96.6771361  38.8650491  62.1281486  97.7943555  36.3204874  67.3873260
  97.2908351  36.2835009  66.5741065  98.0874162  37.2297617  67.4469917
  94.0386441  36.4043604  66.3939442  94.9039438  36.2086412  66.0345331
  94.1063950  36.1753955  67.3208798 103.6531572  46.6941184  59.8649635
 102.8761015  46.3552344  59.4204797 104.3323053  46.6993808  59.1904600
  98.4683601  41.8135922  59.7556243  98.1633737  42.1282071  60.6066386
  99.4214043  41.8917342  59.7983576  96.9130033  47.9726145  61.4049197
  96.3851394  47.2378905  61.0922434  96.4117536  48.7500822  61.1589165
 101.8922879  46.1675166  66.5216243 101.2346553  46.8574427  66.6096372
 102.6963278  46.5571598  66.8650230  91.6448760  38.6345811  63.7655809
  92.2192512  38.4120993  63.0329001  92.2319743  38.7034506  64.5184410
 100.7028338  44.5219538  64.5720185 101.2160219  45.1549530  65.0741895
 101.3529562  43.9220734  64.2063545  91.9718348  40.6650273  57.7851694
  91.1355660  41.0024959  58.1060969  91.8323117  40.5299252  56.8478831
  93.9471428  35.5087060  62.4930878  93.2935840  35.1936078  61.8687493
  93.9051902  34.8862801  63.2190701  95.0582633  45.7906355  54.4084170
  94.1509695  45.5595609  54.6075319  95.5553665  44.9943975  54.5958152
  97.9650712  54.5003863  57.3280856  97.2912411  54.8035559  57.9365814
  98.3516534  55.3032943  56.9786313  97.1809169  41.9968994  66.8178526
  96.2631730  42.2183941  66.6600214  97.5969312  42.0715304  65.9590233
  97.9644216  43.3960410  61.9481206  98.7116035  43.9081807  61.6388328
  98.2335806  43.0744462  62.8085599  96.2370866  45.8918950  58.9308160
  95.3282086  45.6077983  59.0280630  96.2665950  46.3118029  58.0711467
 101.4690134  49.5025540  62.6999328 101.0152461  48.6616450  62.7564518
 100.8384101  50.1386938  63.0374108 100.4123053  40.4317526  63.9299995
  99.6745810  39.9194912  64.2610238 100.6649827  39.9917907  63.1183272
  99.9123073  51.3402037  63.6349146 100.2046047  51.9007094  62.9161511
 100.4221694  51.6330598  64.3902305 100.5134681  33.2093778  64.5241764
 100.8193558  32.3491141  64.2367679 101.2387286  33.8011398  64.3240758
  86.8059037  43.6124464  62.9123362  86.6083437  43.0193825  62.1874429
  86.2505701  43.3076675  63.6299301  94.7855760  43.5047571  65.0317955
  94.8404370  42.5521407  64.9560432  93.9746963  43.6607010  65.5159254
  95.9346954  47.4327694  56.2696239  95.4966384  46.7163553  55.8101876
  96.6757395  47.6603809  55.7081330  92.7248120  42.1224631  62.7908334
  91.9115986  42.4218801  63.1973526  93.2207115  41.7280319  63.5082817
  94.8756698  52.1182388  64.7242599  94.8332877  52.3443234  63.7951131
  95.7919397  51.8845762  64.8728400  98.3222332  42.5866455  71.6223228
  98.6771720  42.8137928  72.4817694  98.9694463  42.9184832  71.0000484
 104.0520069  45.7084891  62.3272557 103.9137968  45.8986487  61.3993746
 103.6956288  46.4704274  62.7840608  92.2162195  39.6942986  68.4069569
  92.8561574  39.5531745  67.7092533  91.3839726  39.4077500  68.0308171
 104.0789449  47.7761418  67.3383829 104.5125955  47.6836707  68.1866883
 104.7921029  47.7518919  66.7003845  92.9922499  48.9945417  64.5204562
  93.7863098  48.4995737  64.3187137  92.2814191  48.4663280  64.1572267
  97.8117344  51.3763512  68.8716929  97.8654366  51.9454448  69.6394645
  96.9432125  51.5465397  68.5070967  89.3005263  43.1388498  60.5964314
  88.3702851  43.0772954  60.8134277  89.3962735  42.6164451  59.8000956
  89.2190812  39.6643311  63.1842556  89.4797629  40.5788644  63.0751717
  90.0407984  39.1967754  63.3339169  90.6915737  41.0781068  70.3541381
  91.3638790  40.8698430  69.7054030  89.8645523  40.8803154  69.9146613
  96.5941309  37.7043009  72.3707042  95.9469224  38.4032959  72.2771518
  97.3642324  38.1379153  72.7383290 100.0020107  47.9691861  75.4457595
  99.8505613  47.7402413  74.5287678  99.9924786  48.9262463  75.4588940
  96.7705443  45.5423774  70.4303861  97.6997503  45.6934934  70.2572829
  96.3496473  45.6307795  69.5752508  95.5693775  49.5674439  68.2002399
  95.4304861  49.1993223  69.0728337  94.7808371  50.0822078  68.0286357
  96.1641927  54.6683535  59.5427935  96.3393683  54.1971578  60.3573558
  95.4774715  55.2949301  59.7709196  97.1198990  48.9456041  65.5891237
  96.7848823  48.9056811  66.4848887  96.6202936  48.2800757  65.1161647
  91.0943234  44.3523671  71.1143818  90.9563032  43.6203910  71.7155357
  92.0048158  44.2632571  70.8328006 100.0558182  46.2912076  55.8628296
  99.4387352  45.5658904  55.7661349  99.5874670  47.0521436  55.5195371
  93.7225535  44.0643631  70.6027497  94.4325153  43.4236823  70.5614116
  93.6794843  44.3156526  71.5253678 101.7112314  51.0010984  73.5234077
 101.6524860  50.3170204  72.8564660 102.1131832  51.7429974  73.0714703
  92.4354469  41.0508849  72.4223137  91.8991826  40.5999587  73.0744733
  91.8471177  41.1854757  71.6793601  90.7303012  57.8172898  66.3167796
  90.9699611  58.4491422  66.9946814  89.8872209  57.4660938  66.6033155
  91.8456728  40.5097500  54.9849601  90.9686194  40.3886301  54.6211847
  92.3214481  39.7183578  54.7328489 101.7129721  48.9650568  71.7548056
 100.8256500  48.6276490  71.8774455 102.2828272  48.2333599  71.9916822
  83.3658868  45.2974660  65.0791108  84.0529908  44.9836390  64.4912123
  83.2106997  46.2016024  64.8058359  88.1693590  40.1864856  69.5076131
  88.0851779  39.5790526  68.7726541  87.3476296  40.6773875  69.5085628
  95.2430874  53.6252020  68.7209300  95.1701046  54.4306992  69.2328604
  94.8008267  53.8243986  67.8957321  95.0320654  52.8623790  62.2312121
  94.2488176  53.4045471  62.3250346  95.7313399  53.3797770  62.6306362
  98.3417304  38.6718420  64.8746326  98.8386003  37.9188382  64.5547397
  97.5704285  38.7082736  64.3089536  97.7029558  53.5238854  70.8767458
  98.4157530  54.1586319  70.8043360  97.2119586  53.6202720  70.0607460
  99.4247085  47.4290107  62.4484750  98.4903363  47.5491569  62.2789454
  99.6023753  46.5262574  62.1844760  94.9252273  40.8135803  64.6018011
  94.5550060  40.2606843  65.2898917  95.4211365  40.2093936  64.0493011
 102.8119636  43.2707426  62.9834784 103.2780088  44.1035418  62.9095087
 103.2627136  42.8052408  63.6880042  92.7541471  51.2733298  71.6973029
  93.4550931  51.9069781  71.8502423  92.2836586  51.6148029  70.9368668
 100.8795867  49.6151248  59.9820936 101.1555711  49.5007842  60.8914810
 100.0100366  49.2168732  59.9433109 100.7836299  35.6388013  67.0225685
  99.8699379  35.8692240  67.1907892 101.2129400  35.7226457  67.8739718
 100.5542757  43.8277905  69.5225579  99.9014207  44.0753813  68.8678032
 100.9323137  43.0142043  69.1888057  97.5149931  53.8637598  63.6253750
  97.6972326  53.0459254  64.0881502  98.3382917  54.0805291  63.1878640
  97.8492097  52.7905784  60.8868798  98.3779863  52.2798238  60.2738960
  98.1120316  52.4748314  61.7514331  96.6030330  44.5697716  76.0091616
  95.9270967  44.4691846  76.6793992  97.4257964  44.4136930  76.4727614
  88.3509189  50.8069653  68.6304132  88.9362626  50.0613341  68.7632036
  88.1534028  51.1173610  69.5140796  91.2047845  53.8420900  63.6466574
  90.5358220  54.3267028  63.1630614  91.0660714  54.0890121  64.5609953
  82.9426844  43.3775253  67.3508575  82.9810944  42.8438844  68.1445693
  82.4367137  42.8510459  66.7319552  95.3453113  55.8764644  70.2449232
  95.8971421  56.0396265  71.0098318  95.6859307  56.4669082  69.5729257
  90.3217606  38.2239794  70.8471117  90.3858933  39.0854624  70.4348515
  90.2584727  37.6113795  70.1143476  89.7969879  40.2962926  74.4944151
  90.4241918  39.9140003  75.1081676  88.9397798  40.0777128  74.8599844
 100.1963987  50.7025901  76.0997887 100.7403891  51.3155860  75.6052842
  99.6150832  51.2605480  76.6164900  86.5735422  42.1039355  60.4262506
  86.8688863  41.1950034  60.3729560  85.6723457  42.0827095  60.1043509
  98.4821500  53.8246619  67.2312915  98.3572640  53.0236359  66.7223860
  99.1400591  54.3192813  66.7426885  90.1029669  40.1795352  66.4090055
  89.3816254  40.7931319  66.2697528  90.8922924  40.7153117  66.3306701
 100.5456409  51.6255639  68.8592465  99.5986744  51.5060991  68.7870791
 100.8939182  50.7378137  68.9418726  92.9055982  37.5149778  72.6830707
  93.4290384  37.7612075  73.4457016  92.6868315  38.3469813  72.2633844
  88.3023263  39.7853453  60.5501831  87.9735969  38.9050832  60.3676937
  88.6562634  39.7301122  61.4378221  97.5502842  51.4208356  65.0596817
  97.4027804  50.4925063  65.2404387  98.3756336  51.4428446  64.5753892
  91.4165086  40.0726423  60.9177309  91.7561159  40.6012344  60.1955917
  91.8637207  40.4106829  61.6935876 101.1536964  52.2436914  66.1461690
 102.0783511  52.0379776  66.0086141 100.9852267  51.9953315  67.0551031
  94.1108527  38.4563473  70.3680377  93.7705348  37.6571286  70.7701057
  93.4047533  38.7565184  69.7957210  94.7624999  35.5412786  68.8207700
  95.5851068  35.0673264  68.6986590  95.0063063  36.3203270  69.3206386
  93.4033234  38.5701044  59.1170602  94.1241596  38.9482297  58.6134319
  92.7798538  39.2889921  59.2205580  97.5464356  39.2746193  60.0528934
  97.7627971  40.1570831  59.7517762  97.0658424  38.8832407  59.3234576
  92.2863578  42.2331906  66.6299679  92.1408158  42.5472210  67.5223960
  91.8088781  42.8516807  66.0770577  94.1459961  39.2234454  66.6780568
  94.1321529  38.3275548  66.3412866  94.8632389  39.2305118  67.3118854
  95.9986091  39.6571795  68.7233696  95.7403869  40.5788865  68.7218026
  95.4671132  39.2602229  69.4134160 100.9432280  52.7622582  61.5023781
 101.1169158  52.1969004  60.7497634 101.4361171  53.5623477  61.3203271
  86.7609240  44.7737251  69.5687340  86.2162708  45.5497059  69.7007614
  87.6388590  45.1208055  69.4106461  93.5496857  38.1048835  61.9468138
  93.6712768  37.1765481  62.1459026  93.2598899  38.1187521  61.0346454
  96.4188047  35.7903745  65.0834858  96.4409744  35.8543078  64.1286838
  96.8356106  34.9508254  65.2775364 101.9307453  52.0789346  58.6020679
 102.6258357  52.6996039  58.8207994 102.2730603  51.2284697  58.8773057
  87.5475262  43.9007147  72.4617497  86.8056998  44.0489782  73.0482127
  87.2268006  44.1615413  71.5984246 103.8298876  49.5289052  60.1308010
 104.3550200  49.8676324  59.4057330 103.7421228  48.5936067  59.9471145
  95.4918924  53.4423125  72.2597887  95.8006051  53.1972272  73.1320586
  96.2894406  53.6469764  71.7716757  95.5139536  55.5961035  64.4903263
  95.0744527  55.1037414  65.1836120  96.2647653  55.0534003  64.2495339
  87.9931875  51.7872576  64.4927891  88.8189895  51.4876348  64.1126535
  87.6425927  51.0180198  64.9417680  92.9613409  51.1399044  66.5625565
  92.3393418  50.4769749  66.2627793  93.6318276  51.1660176  65.8799213
  86.1940481  49.7058902  65.4516825  85.3572389  49.2781077  65.2700826
  86.1664126  49.8991346  66.3887616  93.0337936  39.6180832  76.1558071
  93.0826092  40.4942955  75.7735841  93.5760450  39.0758225  75.5829714
 103.5192782  50.1621955  75.4359208 102.7288326  50.1446094  74.8963708
 103.2826136  50.7010249  76.1908245 103.6390657  47.0114422  72.7491937
 103.6888662  46.8464429  73.6907459 103.5304580  46.1441681  72.3589817
  92.5226916  49.6902967  60.0384026  92.6715036  50.3738432  59.3850698
  93.3293359  49.6708057  60.5533481 100.9294419  42.9945350  74.0651243
 101.8304282  42.8551815  73.7735241 101.0042394  43.1599805  75.0049421
  95.2637225  40.3712204  72.9104430  94.3940534  40.6645771  72.6387018
  95.4996705  40.9552649  73.6311693 103.3896042  44.5543978  71.4614016
 103.8650164  44.7471624  70.6532868 102.4661607  44.6103164  71.2157400
  90.2779549  45.7168145  61.0445094  90.0325590  44.8130475  61.2425305
  90.4475463  45.7185295  60.1024572  97.9676258  36.5891821  70.4269850
  98.4858202  37.3252848  70.1016339  97.6131391  36.8955815  71.2616609
  89.5475196  41.4496503  58.5431256  88.8544441  41.5240858  57.8871292
  89.3026948  40.6856846  59.0652773  98.2188853  33.0092104  65.9470747
  98.4990606  32.3415293  66.5731173  99.0039459  33.2021200  65.4345411
  96.0222321  52.1851098  57.5095773  95.4496288  52.8041285  57.0566245
  96.5955115  52.7350460  58.0435695 102.0897711  41.4309738  69.6942322
 103.0415134  41.5307836  69.7154546 101.9201161  40.6388006  70.2040406
 100.1112090  38.5165321  69.8801723  99.5162022  38.7970334  69.1848211
  99.8261787  39.0059222  70.6518464  99.2419581  52.4688248  58.6404355
 100.1750254  52.4033810  58.8437231  99.1542794  53.3044515  58.1818888
 101.8707598  51.7854118  55.6008303 101.7921229  51.4513982  56.4944061
 102.6917264  52.2775886  55.5999775  96.4069120  43.5211911  54.8511825
  97.3528224  43.3918119  54.9200244  96.0283365  42.7826573  55.3281254
 102.3791004  35.1867917  64.8138717 102.1815825  34.8783005  65.6982049
 102.9890710  35.9129556  64.9436647  96.2907812  47.5729657  76.3112482
  97.2110822  47.7508256  76.5052529  96.2557395  46.6285702  76.1592182
  94.5912037  41.4461887  54.7866711  93.6843492  41.1495000  54.8629424
  94.8688018  41.1491705  53.9200997  85.5089977  42.7668250  65.2365757
  85.1892761  41.9133559  64.9440131  84.9623405  42.9816829  65.9923724
  89.2869885  45.4830691  68.9535264  89.5055894  46.4147799  68.9723297
  89.6995658  45.1238666  69.7390067  96.2074102  35.9898777  60.9410952
  95.3974831  35.6445862  61.3166198  96.8958519  35.6806320  61.5298564
  98.1364651  35.0676824  62.5635249  98.6895689  35.4872277  63.2225272
  98.3734737  34.1412572  62.6058205  94.1597750  41.0563897  78.3438013
  94.0594477  42.0058254  78.2750104  93.9419292  40.7282136  77.4714083
  93.3610821  38.3048822  54.9278690  94.2229985  38.6303721  55.1874507
  93.5461165  37.5180318  54.4151756  85.3778237  46.3871162  67.2058879
  84.6841709  45.9725115  66.6928833  86.1251228  46.4291698  66.6092298
 101.5143458  37.1777349  62.0713913 100.9342127  37.8362153  61.6891965
 101.2479391  36.3554693  61.6601330  99.9647024  36.5782406  64.2735233
 100.4646803  36.6898941  63.4649552 100.6082632  36.2743459  64.9136042
  94.0229020  44.4861036  77.1603074  93.5396102  45.2861396  77.3666963
  94.1089959  44.4968981  76.2070518  87.2914980  46.3189416  65.0824894
  87.2685668  46.4177103  64.1306777  87.6015616  47.1654566  65.4042060
  89.9502358  48.3765571  69.1971508  90.9045611  48.3449513  69.1301440
  89.7514881  47.9156194  70.0121734  90.5401740  46.9466687  71.7642306
  91.3594629  47.4410765  71.7877143  90.8138547  46.0298655  71.7359873
 100.2968336  39.3377439  61.1270261  99.4094191  39.6227090  60.9090456
 100.7122325  39.1771202  60.2797538 103.6482872  39.3623960  64.8424600
 104.4243262  39.8520412  65.1149217 102.9231006  39.7882014  65.2996470
  88.3052586  53.9185190  66.2141706  88.1707054  53.1585591  65.6479704
  87.8884649  54.6426090  65.7470495  99.4411549  49.1022114  55.2218281
 100.1447399  49.3072116  55.8375937  98.7174198  49.6698876  55.4867365
 100.2709360  44.8531975  61.3420551 100.2144561  45.3100526  60.5028184
 100.8237702  44.0922660  61.1643394 104.0814165  40.6421707  62.1670671
 103.8251100  40.2418343  62.9978879 103.4567034  41.3565501  62.0420810
  91.4621712  54.8154507  66.4260149  91.3454096  55.7599940  66.3238839
  90.6414158  54.5128069  66.8145948 101.3498247  49.5404643  57.2716741
 102.1843851  49.1085841  57.0894216 101.1882590  49.3686657  58.1993636
 101.0044139  46.0436756  58.6373081 100.9492943  45.8781028  57.6961525
 100.3790194  46.7512789  58.7935270  85.7936654  41.2804821  72.4634503
  86.4395517  40.7703775  72.9521728  85.5853805  42.0173502  73.0377928
  98.3190046  48.3485668  77.9626643  99.1881206  48.5226320  77.6013278
  97.8396798  49.1680085  77.8402373  94.3140264  35.5444865  58.2158399
  94.3018934  36.4886705  58.3726670  95.2063686  35.3615011  57.9217860
  92.4876226  55.4682769  69.6416077  93.3903473  55.5006379  69.9582572
  92.2613596  54.5383220  69.6562413  94.2429828  54.2213756  66.3026156
  93.2925459  54.2215617  66.1890528  94.5462314  53.4746490  65.7862190
  98.1292384  32.1387642  62.4704336  97.3624780  31.5846129  62.6161018
  98.5403089  32.2109511  63.3318487  90.1334145  38.4272438  76.5609517
  90.9965606  38.0709243  76.7712842  89.5599556  38.0886333  77.2484921
 102.6459044  61.8637199  63.2930334 102.0823909  61.7727135  62.5246621
 102.5311439  61.0437103  63.7732826 100.1923476  63.3588390  66.1314554
 100.9844768  63.0179215  65.7160853 100.4320126  63.4683365  67.0516707
 102.1514230  62.6197303  59.0031933 102.9245106  62.0726290  58.8644809
 102.5039629  63.4841553  59.2146394 103.9899272  63.9473686  72.2098832
 103.6989138  64.8519317  72.0945498 104.6256257  63.9890213  72.9242902
 104.4880507  58.7789970  56.6350383 104.7406028  58.2571491  55.8733846
 103.5505067  58.6156115  56.7377066 104.2076796  60.6818075  58.8374758
 104.0913054  60.0062979  59.5055842 104.3179056  60.1950449  58.0206911
 102.4001639  60.0848898  65.2385330 101.4752135  59.9525112  65.4463022
 102.6486052  60.8643117  65.7355273  99.7610450  59.7282172  66.0729119
  99.8902831  59.9816650  66.9868531  99.0807901  60.3209880  65.7533774
 103.9309937  70.3979422  62.1719594 103.8533967  71.3487247  62.2508074
 103.3271581  70.0525294  62.8294520 102.9209736  62.3668961  66.9453226
 103.4911093  62.7956229  66.3070711 103.5117848  62.0851546  67.6437412
 103.4134903  57.5332388  75.1914237 102.7833563  58.2148669  75.4249634
 103.3070991  57.4215470  74.2467376  98.7079875  57.2004185  66.1180162
  97.9178929  57.4561713  65.6420272  99.1991123  58.0152522  66.2232202
 100.6594621  57.5648764  63.0763638  99.8625784  57.6767458  63.5947134
 100.4320213  57.9035416  62.2104529  96.9917578  57.4534675  68.5495152
  97.2425617  58.3381685  68.8152728  97.5277127  57.2739277  67.7770244
 102.6915646  51.8353154  77.5539488 102.2982591  51.2819353  78.2287133
 103.5081786  52.1463733  77.9446006  99.6577703  63.2737013  61.4653058
 100.1702224  64.0680263  61.6158623 100.3100416  62.5763303  61.3986660
 101.4672588  66.3902769  63.5475812 101.6439216  67.3120733  63.3596795
 102.2629422  66.0761188  63.9770191 100.7524945  58.4367401  73.4237975
 100.6378460  57.5352658  73.7245074  99.8969462  58.6831097  73.0722791
 102.5903904  67.9080943  69.5486154 103.1411329  67.7798006  68.7763148
 101.7515379  68.2075832  69.1981047  97.6226620  61.6025667  62.2412629
  98.4601842  62.0122675  62.0246337  97.8004888  60.6625109  62.2112823
 102.4842515  53.9637729  63.7655809 103.0586267  53.7412911  63.0329001
 103.0713497  54.0326424  64.5184410 102.8112102  55.9942190  57.7851694
 101.9749414  56.3316877  58.1060969 102.6716872  55.8591170  56.8478831
 104.7865183  50.8378978  62.4930878 104.1329595  50.5227995  61.8687493
 104.7445657  50.2154719  63.2190701  97.6452791  58.9416382  62.9123362
  97.4477191  58.3485743  62.1874429  97.0899455  58.6368592  63.6299301
 103.5641875  57.4516548  62.7908334 102.7509740  57.7510719  63.1973526
 104.0600869  57.0572237  63.5082817 103.0555950  55.0234904  68.4069569
 103.6955329  54.8823663  67.7092533 102.2233480  54.7369417  68.0308171
 103.8316254  64.3237334  64.5204562 104.6256852  63.8287654  64.3187137
 103.1207946  63.7955197  64.1572267 100.1399017  58.4680416  60.5964314
  99.2096605  58.4064872  60.8134277 100.2356489  57.9456369  59.8000956
 100.0584566  54.9935229  63.1842556 100.3191383  55.9080562  63.0751717
 100.8801738  54.5259671  63.3339169 101.5309491  56.4072986  70.3541381
 102.2032545  56.1990348  69.7054030 100.7039278  56.2095072  69.9146613
 101.9336989  59.6815589  71.1143818 101.7956787  58.9495828  71.7155357
 102.8441912  59.5924489  70.8328006 103.2748223  56.3800766  72.4223137
 102.7385580  55.9291505  73.0744733 102.6864932  56.5146675  71.6793601
 101.5696767  73.1464816  66.3167796 101.8093365  73.7783340  66.9946814
 100.7265963  72.7952856  66.6033155 102.6850482  55.8389418  54.9849601
 101.8079949  55.7178218  54.6211847 103.1608235  55.0475496  54.7328489
  94.2052622  60.6266577  65.0791108  94.8923662  60.3128307  64.4912123
  94.0500751  61.5307942  64.8058359  99.0087345  55.5156774  69.5076131
  98.9245533  54.9082443  68.7726541  98.1870051  56.0065792  69.5085628
 103.5935226  66.6025215  71.6973029 104.2944685  67.2361698  71.8502423
 103.1230341  66.9439947  70.9368668  99.1902944  66.1361571  68.6304132
  99.7756381  65.3905258  68.7632036  98.9927782  66.4465527  69.5140796
 102.0441599  69.1712818  63.6466574 101.3751974  69.6558946  63.1630614
 101.9054469  69.4182038  64.5609953  93.7820599  58.7067171  67.3508575
  93.8204698  58.1730761  68.1445693  93.2760891  58.1802376  66.7319552
 101.1611361  53.5531711  70.8471117 101.2252687  54.4146542  70.4348515
 101.0978481  52.9405713  70.1143476 100.6363633  55.6254844  74.4944151
 101.2635672  55.2431921  75.1081676  99.7791552  55.4069046  74.8599844
  97.4129176  57.4331273  60.4262506  97.7082617  56.5241951  60.3729560
  96.5117212  57.4119012  60.1043509 100.9423423  55.5087269  66.4090055
 100.2210009  56.1223237  66.2697528 101.7316679  56.0445034  66.3306701
 103.7449737  52.8441696  72.6830707 104.2684138  53.0903992  73.4457016
 103.5262070  53.6761731  72.2633844  99.1417018  55.1145371  60.5501831
  98.8129724  54.2342749  60.3676937  99.4956388  55.0593039  61.4378221
 102.2558841  55.4018340  60.9177309 102.5954913  55.9304262  60.1955917
 102.7030961  55.7398746  61.6935876 104.9502282  53.7855391  70.3680377
 104.6099102  52.9863204  70.7701057 104.2441288  54.0857102  69.7957210
 104.2426988  53.8992962  59.1170602 104.9635350  54.2774215  58.6134319
 103.6192292  54.6181839  59.2205580 103.1257332  57.5623824  66.6299679
 102.9801913  57.8764127  67.5223960 102.6482536  58.1808724  66.0770577
  97.6002994  60.1029169  69.5687340  97.0556462  60.8788976  69.7007614
  98.4782344  60.4499973  69.4106461 104.3890611  53.4340752  61.9468138
 104.5106522  52.5057399  62.1459026 104.0992653  53.4479438  61.0346454
  98.3869016  59.2299065  72.4617497  97.6450752  59.3781700  73.0482127
  98.0661761  59.4907330  71.5984246  98.8325630  67.1164493  64.4927891
  99.6583650  66.8168265  64.1126535  98.4819682  66.3472116  64.9417680
 103.8007163  66.4690962  66.5625565 103.1787172  65.8061667  66.2627793
 104.4712030  66.4952094  65.8799213  97.0334235  65.0350820  65.4516825
  96.1966143  64.6072994  65.2700826  97.0057880  65.2283263  66.3887616
 103.8731691  54.9472750  76.1558071 103.9219846  55.8234873  75.7735841
 104.4154205  54.4050143  75.5829714 103.3620670  65.0194885  60.0384026
 103.5108790  65.7030349  59.3850698 104.1687113  64.9999975  60.5533481
 101.1173303  61.0460063  61.0445094 100.8719345  60.1422393  61.2425305
 101.2869218  61.0477213  60.1024572 100.3868951  56.7788420  58.5431256
  99.6938195  56.8532775  57.8871292 100.1420702  56.0148764  59.0652773
  96.3483732  58.0960168  65.2365757  96.0286516  57.2425476  64.9440131
  95.8017160  58.3108746  65.9923724 100.1263639  60.8122609  68.9535264
 100.3449649  61.7439717  68.9723297 100.5389413  60.4530583  69.7390067
 104.9991504  56.3855815  78.3438013 104.8988231  57.3350172  78.2750104
 104.7813046  56.0574054  77.4714083  96.2171992  61.7163080  67.2058879
  95.5235463  61.3017032  66.6928833  96.9644983  61.7583616  66.6092298
 104.8622775  59.8152954  77.1603074 104.3789856  60.6153314  77.3666963
 104.9483714  59.8260899  76.2070518  98.1308734  61.6481333  65.0824894
  98.1079422  61.7469021  64.1306777  98.4409371  62.4946484  65.4042060
 100.7896112  63.7057488  69.1971508 101.7439366  63.6741431  69.1301440
 100.5908636  63.2448112  70.0121734 101.3795494  62.2758604  71.7642306
 102.1988383  62.7702683  71.7877143 101.6532302  61.3590573  71.7359873
  99.1446341  69.2477108  66.2141706  99.0100809  68.4877509  65.6479704
  98.7278403  69.9718008  65.7470495 102.3015467  70.1446425  66.4260149
 102.1847851  71.0891857  66.3238839 101.4807913  69.8419986  66.8145948
  96.6330408  56.6096738  72.4634503  97.2789272  56.0995692  72.9521728
  96.4247559  57.3465420  73.0377928 103.3269981  70.7974687  69.6416077
 104.2297227  70.8298297  69.9582572 103.1007351  69.8675138  69.6562413
 100.9727899  53.7564355  76.5609517 101.8359361  53.4001160  76.7712842
 100.3993310  53.4178250  77.2484921 104.6214353  74.0359088  67.3508575
 104.6598453  73.5022679  68.1445693 104.1154646  73.5094294  66.7319552
  69.0515505   4.1651185  53.0413102  69.2912103   4.7969709  53.7192121
  68.2084701   3.8139225  53.3278461  80.9671536   8.2115486  50.0175640
  80.4036401   8.1205423  49.2491928  80.8523931   7.3915390  50.4978133
  78.5135968   9.7066677  52.8559861  79.3057260   9.3657502  52.4406160
  78.7532618   9.8161652  53.7762014  86.5471095  11.8786453  45.3290105
  85.8959075  12.4640534  44.9424119  87.3415458  12.4092648  45.3885143
  80.4726722   8.9675591  45.7277239  81.2457598   8.4204578  45.5890115
  80.8252121   9.8319840  45.9391701  82.3111764  10.2951973  58.9344139
  82.0201630  11.1997604  58.8190805  82.9468749  10.3368501  59.6488208
  87.2701650   9.9813388  55.9293932  86.9702373  10.8838427  55.8209740
  86.9252709   9.7145572  56.7815085  82.2522429  16.7457709  48.8964900
  82.1746459  17.6965534  48.9753381  81.6484073  16.4003581  49.5539826
  84.3498148   9.1675767  50.7318770  84.8136493   9.4463470  49.9423392
  84.0854946   8.2659211  50.5491860  81.2422229   8.7147248  53.6698533
  81.8123586   9.1434517  53.0316017  81.8330341   8.4329833  54.3682718
  84.8112781  10.4371754  57.7491460  84.8757213  10.8992161  58.5849631
  84.1023705   9.8069119  57.8773769  84.5260798  12.1039862  47.6170440
  84.3906473  12.9491397  48.0455288  85.0670611  12.3059139  46.8536374
  77.9790196   9.6215300  48.1898365  78.4914716  10.4158550  48.3403930
  78.6312909   8.9241590  48.1231966  79.7885080  12.7381056  50.2721118
  79.9651709  13.6599021  50.0842102  80.5841914  12.4239475  50.7015498
  86.1529275  12.7263428  61.7470782  85.7093129  11.9399807  61.4291686
  86.8146488  12.9142579  61.0814673  80.9116396  14.2559230  56.2731460
  81.4623821  14.1276293  55.5008454  80.0727872  14.5554119  55.9226353
  88.2510513  13.0066228  59.7752183  88.2328988  13.8275109  59.2832452
  89.1730433  12.8820303  60.0002324  84.7083567  10.5210358  60.6175692
  85.2411904   9.7598646  60.3875000  84.1797648  10.2284009  61.3599846
  75.9439112   7.9503954  48.9657936  76.7814334   8.3600962  48.7491643
  76.1217380   7.0103396  48.9358129  86.0736280   9.6496350  48.1294504
  85.5457641   8.9149110  47.8167741  85.5723782  10.4271026  47.8834472
  87.1256959  16.1774068  44.0526163  86.4518657  16.4805764  44.6611121
  87.5122781  16.9803148  43.7031620  89.0729320  13.0172241  50.3594452
  89.3652294  13.5777299  49.6406818  89.5827940  13.3100802  51.1147612
  84.0362945  13.7952593  51.4487906  83.9939124  14.0213439  50.5196438
  84.9525644  13.5615967  51.5973707  82.1528746  10.6715622  51.2449868
  82.9469344  10.1765942  51.0432443  81.4420438  10.1433485  50.8817574
  86.9723590  13.0533717  55.5962236  87.0260613  13.6224653  56.3639952
  86.1038372  13.2235602  55.2316273  84.7300022  11.2444644  54.9247705
  84.5911108  10.8763428  55.7973644  83.9414618  11.7592283  54.7531663
  85.3248174  16.3453740  46.2673242  85.4999929  15.8741783  47.0818865
  84.6380962  16.9719506  46.4954503  86.2805237  10.6226246  52.3136543
  85.9455070  10.5827016  53.2094193  85.7809183   9.9570962  51.8406954
  90.8718560  12.6781189  60.2479383  90.8131106  11.9940409  59.5809966
  91.2738079  13.4200179  59.7960009  79.8909259  19.4943103  53.0413102
  80.1305857  20.1261627  53.7192121  79.0478456  19.1431143  53.3278461
  72.5265115   6.9744865  51.8036414  73.2136155   6.6606595  51.2157430
  72.3713243   7.8786229  51.5303666  84.4037121  15.3022225  55.4454606
  84.3307292  16.1077197  55.9573911  83.9614514  15.5014191  54.6202628
  84.1926901  14.5393995  48.9557428  83.4094422  15.0815675  49.0495652
  84.8919646  15.0567975  49.3551669  86.8635804  15.2009059  57.6012765
  87.5763777  15.8356524  57.5288666  86.3725833  15.2972925  56.7852767
  81.9147718  12.9503503  58.4218336  82.6157178  13.5839986  58.5747730
  81.4442833  13.2918234  57.6613975  90.0402114  11.2921452  46.7066243
  90.3161958  11.1778047  47.6160117  89.1706613  10.8938937  46.6678416
  86.6756178  15.5407803  50.3499056  86.8578572  14.7229459  50.8126809
  87.4989164  15.7575496  49.9123946  87.0098343  14.4675988  47.6114105
  87.5386110  13.9568443  46.9984267  87.2726563  14.1518519  48.4759638
  77.5115436  12.4839858  55.3549438  78.0968873  11.7383546  55.4877343
  77.3140275  12.7943814  56.2386102  80.3654091  15.5191105  50.3711881
  79.6964467  16.0037233  49.8875921  80.2266961  15.7660326  51.2855259
  72.1033091   5.0545458  54.0753881  72.1417190   4.5209049  54.8691000
  71.5973384   4.5280663  53.4564859  84.5059360  17.5534849  56.9694539
  85.0577668  17.7166470  57.7343624  84.8465553  18.1439286  56.2974564
  89.3570234  12.3796106  62.8243194  89.9010138  12.9926064  62.3298148
  88.7757079  12.9375685  63.3410207  87.6427747  15.5016824  53.9558221
  87.5178887  14.7006564  53.4469167  88.3006838  15.9963018  53.4672191
  89.7062656  13.3025844  55.5837771  88.7592991  13.1831195  55.5116098
  90.0545429  12.4148342  55.6664033  86.7109089  13.0978560  51.7842124
  86.5634051  12.1695268  51.9649694  87.5362582  13.1198651  51.2999199
  90.3143211  13.9207119  52.8706996  91.2389758  13.7149981  52.7331447
  90.1458514  13.6723520  53.7796338  90.1038527  14.4392787  48.2269088
  90.2775404  13.8739209  47.4742940  90.5967418  15.2393682  48.0448578
  75.9215487   6.4507456  56.2932647  75.3768955   7.2267264  56.4252921
  76.7994837   6.7978260  56.1351768  91.0913699  13.7559551  45.3265986
  91.7864604  14.3766244  45.5453301  91.4336850  12.9054902  45.6018364
  84.6525171  15.1193330  58.9843193  84.9612298  14.8742477  59.8565893
  85.4500653  15.3239969  58.4962064  84.6745783  17.2731240  51.2148570
  84.2350774  16.7807619  51.9081427  85.4253900  16.7304208  50.9740645
  77.1538122  13.4642781  51.2173198  77.9796142  13.1646553  50.8371842
  76.8032174  12.6950403  51.6662987  82.1219655  12.8169249  53.2870872
  81.4999665  12.1539954  52.9873100  82.7924522  12.8430381  52.6044519
  75.3546727  11.3829107  52.1762132  74.5178636  10.9551282  51.9946133
  75.3270373  11.5761551  53.1132923  92.6799029  11.8392160  62.1604515
  91.8894572  11.8216299  61.6209014  92.4432383  12.3780454  62.9153551
  81.6833162  11.3673172  46.7629332  81.8321283  12.0508637  46.1096005
  82.4899606  11.3478262  47.2778788  79.4385795   7.3938350  47.7690401
  79.1931837   6.4900680  47.9670611  79.6081710   7.3955500  46.8269879
  85.1828568  13.8621303  44.2341080  84.6102535  14.4811490  43.7811551
  85.7561362  14.4120664  44.7681002  88.4025828  14.1458453  45.3649662
  89.3356501  14.0804015  45.5682537  88.3149040  14.9814720  44.9064195
  91.0313844  13.4624323  42.3253609  90.9527476  13.1284187  43.2189367
  91.8523511  13.9546091  42.3245082  78.4476131   7.1600896  55.6780570
  78.6662141   8.0918004  55.6968604  78.8601905   6.8008871  56.4635374
  74.5384484   8.0641367  53.9304185  73.8447955   7.6495320  53.4174140
  75.2857475   8.1061903  53.3337604  76.4521226   7.9959621  51.8070200
  76.4291915   8.0947308  50.8552083  76.7621863   8.8424771  52.1287366
  79.1108604  10.0535776  55.9216815  80.0651858  10.0219718  55.8546746
  78.9121128   9.5926399  56.7367041  79.7007986   8.6236892  58.4887612
  80.5200875   9.1180970  58.5122450  79.9744794   7.7068860  58.4605180
  77.4658833  15.5955395  52.9387012  77.3313301  14.8355796  52.3725011
  77.0490895  16.3196295  52.4715801  88.6017796  10.7792319  41.9463588
  89.3053646  10.9842321  42.5621243  87.8780445  11.3469081  42.2112671
  80.6227959  16.4924712  53.1505455  80.5060343  17.4370145  53.0484145
  79.8020405  16.1898274  53.5391254  90.5104493  11.2174848  43.9962048
  91.3450097  10.7856046  43.8139523  90.3488836  11.0456862  44.9238942
  87.4796293  10.0255873  64.6871950  88.3487452  10.1996525  64.3258585
  87.0003044  10.8450290  64.5647679  81.6482473  17.1452974  56.3661384
  82.5509720  17.1776584  56.6827879  81.4219843  16.2153425  56.3807719
  83.4036075  15.8983961  53.0271462  82.4531706  15.8985822  52.9135834
  83.7068561  15.1516695  52.5107497  99.1388769  21.7344499  54.0917225
  99.7767179  21.6151246  53.3880565  99.0209611  22.6825343  54.1505177
  95.9478475  21.6871927  54.0278749  95.6096986  21.5712992  53.1399284
  96.8168243  21.2863092  54.0079755  91.8065291  23.5407403  50.0175640
  91.2430156  23.4497340  49.2491928  91.6917686  22.7207308  50.4978133
  96.4298258  22.8406779  59.9864955  96.4186899  22.4459577  59.1145458
  96.5918897  22.1072851  60.5798726  89.3529722  25.0358595  52.8559861
  90.1451014  24.6949420  52.4406160  89.5926373  25.1453570  53.7762014
  97.3864849  27.2078371  45.3290105  96.7352829  27.7932452  44.9424119
  98.1809212  27.7384566  45.3885143  91.3120476  24.2967508  45.7277239
  92.0851352  23.7496495  45.5890115  91.6645875  25.1611758  45.9391701
  93.1505519  25.6243891  58.9344139  92.8595385  26.5289521  58.8190805
  93.7862503  25.6660418  59.6488208  94.0761726  23.0020739  55.5245498
  94.6725298  22.7776762  54.8102461  94.1336697  22.2605485  56.1270946
  93.6486754  20.4560174  43.3595689  93.9012275  19.9341696  42.5979152
  92.7111313  20.2926320  43.4622373  98.6930037  19.4595953  51.1670433
  99.4793126  19.0415376  50.8160850  98.9568741  20.3642045  51.3352081
  98.8640114  24.8968803  45.8659089  98.2285947  24.9703430  46.5779994
  98.5337521  25.4862402  45.1878169 104.0938464  19.3971186  52.0703411
 104.8263636  18.8270403  52.3041241 103.3377820  19.0092786  52.5109917
  93.3683043  22.3588280  45.5620064  93.2519301  21.6833184  46.2301149
  93.4785303  21.8720654  44.7452217  95.7114584  21.8198427  49.2666754
  95.3472791  21.2929048  49.9779675  96.5681700  21.4296897  49.0933239
  95.3520071  16.8488327  44.2628102  95.5194473  17.7168564  44.6298573
  95.1617240  17.0115609  43.3389391  98.1095404  25.3105306  55.9293932
  97.8096127  26.2130345  55.8209740  97.7646464  25.0437489  56.7815085
  91.5607886  21.7619103  51.9630637  90.6358382  21.6295317  52.1708329
  91.8092299  22.5413322  52.4600579 101.5092548  17.8287846  53.6091370
 100.6009425  17.7603255  53.3150131 101.4580144  18.3059791  54.4373195
  95.3309292  19.3045985  45.2474769  95.2108917  19.7503035  46.0860249
  94.6361880  19.6531302  44.6888307  88.9216697  21.4052376  52.7974426
  89.0509078  21.6586855  53.7113838  88.2414148  21.9980084  52.4779081
  93.0916184  32.0749626  48.8964900  93.0140214  33.0257452  48.9753381
  92.4877827  31.7295499  49.5539826  95.5833414  19.2477492  61.5526267
  94.8066748  19.8071412  61.5429132  96.2223977  19.7334275  62.0741137
 103.3754194  16.0304285  55.3869244 102.7328574  16.3236818  54.7409038
 102.8709123  15.9157205  56.1922440 101.0294358  19.7767458  46.0755103
 101.9412214  20.0094845  45.9002801 100.5204005  20.3604502  45.5130182
  93.8379786  22.0562945  61.1144234  94.5794470  22.5947989  60.8379058
  93.1316771  22.6829234  61.2715786  99.3135126  24.1992086  59.7116396
  99.7218482  23.7574496  58.9671028  98.5912387  23.6244713  59.9650588
  95.6666196  19.1364692  57.0849953  96.5127391  19.5604106  57.2284602
  95.6064833  18.4798317  57.7788516  99.6363940  24.7593276  53.4668684
  99.0072803  24.9238990  52.7644752  99.2489602  25.1734886  54.2379648
 103.5153172  25.6947714  50.8213048 102.8304210  26.0746616  50.2710082
 103.5997021  26.3043041  51.5544996  98.8165641  16.7969061  58.7431126
  98.5726573  17.5511121  58.2065402  99.0925571  17.1754408  59.5778373
 100.7704104  23.3407673  57.4208392 100.9820999  23.9839433  56.7442773
 100.7233852  22.5069990  56.9530322  98.3730333  15.9525494  54.3244964
  97.5114812  16.2506747  54.6161701  98.3992767  16.1695893  53.3925997
  95.1891902  24.4967684  50.7318770  95.6530248  24.7755387  49.9423392
  94.9248700  23.5951129  50.5491860  92.0815983  24.0439166  53.6698533
  92.6517340  24.4726434  53.0316017  92.6724095  23.7621751  54.3682718
  94.1260788  20.6190837  47.5408335  94.8284831  21.0711880  48.0082261
  93.7941417  19.9774656  48.1688228  92.5741150  19.2102593  61.9159544
  91.9439810  19.8918874  62.1494941  92.4677238  19.0985675  60.9712682
  87.8686122  18.8774389  52.8425468  87.0785176  19.1331918  52.3665579
  88.3597369  19.6922727  52.9477509 101.8849932  26.2179629  55.5930749
 102.7067375  25.8159816  55.3113431 101.8812335  26.1147863  56.5446865
  89.8200867  19.2418969  49.8008945  89.0232031  19.3537663  50.3192441
  89.5926460  19.5805621  48.9349835  95.6506535  25.7663672  57.7491460
  95.7150968  26.2284079  58.5849631  94.9417459  25.1361037  57.8773769
  86.1523825  19.1304880  55.2740459  86.4031864  20.0151890  55.5398035
  86.6883374  18.9509481  54.5015551  95.3654553  27.4331779  47.6170440
  95.2300228  28.2783315  48.0455288  95.9064365  27.6351057  46.8536374
  91.8521892  13.5123359  64.2784795  91.4588838  12.9589558  64.9532439
  92.6688033  13.8233938  64.6691313  88.8183950  24.9507217  48.1898365
  89.3308471  25.7450468  48.3403930  89.4706663  24.2533508  48.1231966
  90.6278835  28.0672974  50.2721118  90.8045463  28.9890938  50.0842102
  91.4235668  27.7531393  50.7015498  94.7689853  14.9281238  61.8705052
  95.5099567  15.5288391  61.7909514  95.0007776  14.1858876  61.3123094
  89.9131191  20.1137606  60.1483281  89.7984707  19.2122863  60.4490380
  89.0575709  20.3601302  59.7968098  96.9923029  28.0555346  61.7470782
  96.5486883  27.2691724  61.4291686  97.6540243  28.2434496  61.0814673
  91.7510150  29.5851147  56.2731460  92.3017575  29.4568211  55.5008454
  90.9121626  29.8846037  55.9226353  99.0904267  28.3358146  59.7752183
  99.0722743  29.1567027  59.2832452 100.0124187  28.2112221  60.0002324
  95.5477321  25.8502275  60.6175692  96.0805658  25.0890564  60.3875000
  95.0191402  25.5575927  61.3599846  86.7832867  23.2795872  48.9657936
  87.6208089  23.6892880  48.7491643  86.9611135  22.3395314  48.9358129
  98.6797299  20.9470952  44.6541768  98.1643923  21.7175557  44.8930156
  98.4074608  20.2736089  45.2774830  96.2644410  15.7920653  49.7127007
  95.4086006  15.4027504  49.5332646  96.6771362  15.8712614  48.8526792
  97.7943557  13.3266996  54.1118567  97.2908352  13.2897132  53.2986372
  98.0874164  14.2359739  54.1715223  94.0386443  13.4105726  53.1184748
  94.9039439  13.2148535  52.7590638  94.1063952  13.1816078  54.0454105
 103.6531573  23.7003307  46.5894942 102.8761016  23.3614467  46.1450104
 104.3323054  23.7055930  45.9149907  98.4683602  18.8198044  46.4801550
  98.1633738  19.1344194  47.3311693  99.4214044  18.8979464  46.5228883
  96.9130034  24.9788268  48.1294504  96.3851396  24.2441027  47.8167741
  96.4117537  25.7562944  47.8834472 101.8922880  23.1737288  53.2461550
 101.2346555  23.8636550  53.3341679 102.6963279  23.5633720  53.5895536
  91.6448762  15.6407934  50.4901115  92.2192514  15.4183116  49.7574308
  92.2319744  15.7096629  51.2429716 100.7028339  21.5281661  51.2965492
 101.2160221  22.1611653  51.7987201 101.3529563  20.9282856  50.9308852
  91.9718349  17.6712395  44.5097000  91.1355661  18.0087082  44.8306275
  91.8323118  17.5361375  43.5724137  93.9471429  12.5149183  49.2176185
  93.2935842  12.1998200  48.5932799  93.9051904  11.8924923  49.9436008
  95.0582634  22.7968478  41.1329477  94.1509696  22.5657732  41.3320626
  95.5553666  22.0006097  41.3203458  97.9650713  31.5065985  44.0526163
  97.2912412  31.8097682  44.6611121  98.3516535  32.3095066  43.7031620
  97.1809170  19.0031117  53.5423832  96.2631731  19.2246064  53.3845520
  97.5969313  19.0777427  52.6835540  97.9644218  20.4022532  48.6726512
  98.7116036  20.9143929  48.3633635  98.2335807  20.0806585  49.5330906
  96.2370868  22.8981073  45.6553467  95.3282087  22.6140106  45.7525937
  96.2665952  23.3180151  44.7956774 101.4690135  26.5087662  49.4244634
 101.0152462  25.6678572  49.4809825 100.8384102  27.1449061  49.7619414
 100.4123055  17.4379648  50.6545302  99.6745811  16.9257035  50.9855544
 100.6649828  16.9980030  49.8428579  99.9123074  28.3464159  50.3594452
 100.2046049  28.9069216  49.6406818 100.4221695  28.6392720  51.1147612
  86.8059038  20.6186587  49.6368669  86.6083438  20.0255948  48.9119736
  86.2505702  20.3138797  50.3544608  94.7855762  20.5109694  51.7563262
  94.8404372  19.5583530  51.6805739  93.9746964  20.6669133  52.2404561
  95.9346956  24.4389817  42.9941545  95.4966385  23.7225676  42.5347183
  96.6757396  24.6665931  42.4326637  92.7248122  19.1286753  49.5153641
  91.9115987  19.4280924  49.9218833  93.2207116  18.7342442  50.2328123
  94.8756700  29.1244510  51.4487906  94.8332878  29.3505357  50.5196438
  95.7919398  28.8907885  51.5973707  98.3222333  19.5928578  58.3468535
  98.6771721  19.8200051  59.2063001  98.9694465  19.9246955  57.7245790
 104.0520070  22.7147014  49.0517864 103.9137969  22.9048610  48.1239053
 103.6956289  23.4766396  49.5085915  92.2162196  16.7005109  55.1314876
  92.8561576  16.5593868  54.4337839  91.3839727  16.4139622  54.7553478
 104.0789450  24.7823541  54.0629135 104.5125957  24.6898830  54.9112189
 104.7921031  24.7581041  53.4249151  92.9922500  26.0007539  51.2449868
  93.7863099  25.5057859  51.0432443  92.2814193  25.4725402  50.8817574
  97.8117345  28.3825635  55.5962236  97.8654367  28.9516571  56.3639952
  96.9432126  28.5527520  55.2316273  89.3005264  20.1450621  47.3209621
  88.3702852  20.0835076  47.5379583  89.3962736  19.6226574  46.5246262
  89.2190813  16.6705434  49.9087863  89.4797630  17.5850767  49.7997023
  90.0407985  16.2029876  50.0584476  90.6915738  18.0843191  57.0786687
  91.3638792  17.8760553  56.4299336  89.8645525  17.8865277  56.6391920
  96.5941310  14.7105132  59.0952348  95.9469225  15.4095082  59.0016825
  97.3642326  15.1441276  59.4628596 100.0020108  24.9753984  62.1702901
  99.8505615  24.7464536  61.2532985  99.9924788  25.9324585  62.1834246
  96.7705445  22.5485897  57.1549168  97.6997505  22.6997056  56.9818135
  96.3496475  22.6369918  56.2997814  95.5693776  26.5736561  54.9247705
  95.4304862  26.2055346  55.7973644  94.7808373  27.0884201  54.7531663
  96.1641928  31.6745658  46.2673242  96.3393684  31.2033701  47.0818865
  95.4774716  32.3011424  46.4954503  97.1198991  25.9518164  52.3136543
  96.7848824  25.9118934  53.2094193  96.6202937  25.2862880  51.8406954
  91.0943235  21.3585794  57.8389124  90.9563033  20.6266033  58.4400663
  92.0048159  21.2694694  57.5573312 100.0558183  23.2974198  42.5873603
  99.4387354  22.5721026  42.4906656  99.5874672  24.0583559  42.2440677
  93.7225536  21.0705753  57.3272804  94.4325155  20.4298945  57.2859423
  93.6794844  21.3218648  58.2498985 101.7112315  28.0073107  60.2479383
 101.6524861  27.3232327  59.5809966 102.1131833  28.7492097  59.7960009
  92.4354470  18.0570971  59.1468444  91.8991827  17.6061710  59.7990040
  91.8471179  18.1916880  58.4038908  90.7303014  34.8235020  53.0413102
  90.9699612  35.4553545  53.7192121  89.8872210  34.4723060  53.3278461
  91.8456729  17.5159623  41.7094907  90.9686195  17.3948423  41.3457154
  92.3214482  16.7245701  41.4573796 101.7129722  25.9712691  58.4793363
 100.8256501  25.6338612  58.6019762 102.2828273  25.2395722  58.7162128
  83.3658869  22.3036782  51.8036414  84.0529909  21.9898512  51.2157430
  83.2106998  23.2078147  51.5303666  88.1693591  17.1926979  56.2321438
  88.0851780  16.5852648  55.4971848  87.3476298  17.6835997  56.2330934
  95.2430875  30.6314143  55.4454606  95.1701047  31.4369114  55.9573911
  94.8008269  30.8306109  54.6202628  95.0320655  29.8685913  48.9557428
  94.2488177  30.4107593  49.0495652  95.7313400  30.3859893  49.3551669
  98.3417305  15.6780542  51.5991633  98.8386005  14.9250505  51.2792703
  97.5704287  15.7144859  51.0334842  97.7029559  30.5300977  57.6012765
  98.4157531  31.1648442  57.5288666  97.2119588  30.6264843  56.7852767
  99.4247086  24.4352230  49.1730056  98.4903365  24.5553692  49.0034761
  99.6023754  23.5324696  48.9090066  94.9252274  17.8197925  51.3263318
  94.5550061  17.2668966  52.0144223  95.4211366  17.2156059  50.7738318
 102.8119637  20.2769549  49.7080091 103.2780089  21.1097540  49.6340393
 103.2627138  19.8114530  50.4125349  92.7541472  28.2795420  58.4218336
  93.4550932  28.9131903  58.5747730  92.2836587  28.6210152  57.6613975
 100.8795868  26.6213370  46.7066243 101.1555712  26.5069965  47.6160117
 100.0100367  26.2230855  46.6678416 100.5542758  20.8340028  56.2470886
  99.9014209  21.0815935  55.5923339 100.9323138  20.0204166  55.9133363
  97.5149932  30.8699721  50.3499056  97.6972327  30.0521377  50.8126809
  98.3382918  31.0867413  49.9123946  97.8492098  29.7967906  47.6114105
  98.3779864  29.2860361  46.9984267  98.1120317  29.4810436  48.4759638
  96.6030331  21.5759839  62.7336923  95.9270969  21.4753968  63.4039298
  97.4257965  21.4199053  63.1972920  88.3509191  27.8131775  55.3549438
  88.9362627  27.0675463  55.4877343  88.1534029  28.1235732  56.2386102
  91.2047846  30.8483023  50.3711881  90.5358221  31.3329150  49.8875921
  91.0660715  31.0952243  51.2855259  82.9426845  20.3837376  54.0753881
  82.9810945  19.8500966  54.8691000  82.4367138  19.8572581  53.4564859
  95.3453114  32.8826766  56.9694539  95.8971422  33.0458388  57.7343624
  95.6859308  33.4731204  56.2974564  90.3217608  15.2301916  57.5716424
  90.3858934  16.0916747  57.1593821  90.2584728  14.6175918  56.8388782
  89.7969880  17.3025049  61.2189458  90.4241919  16.9202126  61.8326982
  88.9397799  17.0839251  61.5845151 100.1963989  27.7088024  62.8243194
 100.7403893  28.3217982  62.3298148  99.6150834  28.2667602  63.3410207
  86.5735423  19.1101478  47.1507813  86.8688864  18.2012156  47.0974867
  85.6723459  19.0889217  46.8288815  98.4821502  30.8308742  53.9558221
  98.3572641  30.0298482  53.4469167  99.1400593  31.3254935  53.4672191
  90.1029670  17.1857474  53.1335361  89.3816256  17.7993442  52.9942835
  90.8922926  17.7215239  53.0552007 100.5456410  28.6317762  55.5837771
  99.5986746  28.5123113  55.5116098 100.8939183  27.7440260  55.6664033
  92.9055983  14.5211901  59.4076013  93.4290385  14.7674197  60.1702323
  92.6868317  15.3531936  58.9879151  88.3023264  16.7915575  47.2747138
  87.9735971  15.9112954  47.0922244  88.6562635  16.7363244  48.1623527
  97.5502843  28.4270478  51.7842124  97.4027806  27.4987186  51.9649694
  98.3756337  28.4490569  51.2999199  91.4165088  17.0788545  47.6422616
  91.7561160  17.6074466  46.9201224  91.8637208  17.4168951  48.4181182
 101.1536965  29.2499037  52.8706996 102.0783513  29.0441898  52.7331447
 100.9852269  29.0015438  53.7796338  94.1108528  15.4625596  57.0925684
  93.7705349  14.6633409  57.4946364  93.4047535  15.7627307  56.5202517
  93.4033235  15.5763167  45.8415908  94.1241597  15.9544420  45.3379625
  92.7798539  16.2952044  45.9450886  97.5464358  16.2808316  46.7774241
  97.7627972  17.1632954  46.4763069  97.0658425  15.8894529  46.0479883
  92.2863579  19.2394029  53.3544985  92.1408160  19.5534332  54.2469267
  91.8088783  19.8578929  52.8015884  94.1459962  16.2296577  53.4025875
  94.1321531  15.3337670  53.0658173  94.8632390  16.2367241  54.0364161
  95.9986093  16.6633917  55.4479002  95.7403870  17.5850988  55.4463333
  95.4671133  16.2664352  56.1379467 100.9432281  29.7684704  48.2269088
 101.1169159  29.2031127  47.4742940 101.4361173  30.5685599  48.0448578
  86.7609241  21.7799373  56.2932647  86.2162709  22.5559181  56.4252921
  87.6388591  22.1270178  56.1351768  93.5496858  15.1110957  48.6713445
  93.6712769  14.1827603  48.8704333  93.2598900  15.1249643  47.7591761
 101.9307454  29.0851469  45.3265986 102.6258358  29.7058161  45.5453301
 102.2730604  28.2346820  45.6018364  87.5475263  20.9069270  59.1862803
  86.8056999  21.0551905  59.7727434  87.2268007  21.1677535  58.3229553
 103.8298877  26.5351174  46.8553317 104.3550201  26.8738447  46.1302637
 103.7421230  25.5998190  46.6716451  95.4918926  30.4485248  58.9843193
  95.8006052  30.2034395  59.8565893  96.2894408  30.6531886  58.4962064
  95.5139538  32.6023158  51.2148570  95.0744528  32.1099536  51.9081427
  96.2647655  32.0596125  50.9740645  87.9931877  28.7934698  51.2173198
  88.8189897  28.4938470  50.8371842  87.6425929  28.0242321  51.6662987
  92.9613410  28.1461167  53.2870872  92.3393419  27.4831872  52.9873100
  93.6318277  28.1722299  52.6044519  86.1940482  26.7121025  52.1762132
  85.3572390  26.2843199  51.9946133  86.1664127  26.9053468  53.1132923
  93.0337937  16.6242955  62.8803378  93.0826093  17.5005077  62.4981147
  93.5760452  16.0820348  62.3075021 103.5192783  27.1684078  62.1604515
 102.7288327  27.1508217  61.6209014 103.2826138  27.7072372  62.9153551
 103.6390658  24.0176544  59.4737243 103.6888663  23.8526552  60.4152766
 103.5304581  23.1503803  59.0835124  92.5226917  26.6965090  46.7629332
  92.6715037  27.3800554  46.1096005  93.3293360  26.6770180  47.2778788
 100.9294421  20.0007472  60.7896550 101.8304283  19.8613937  60.4980548
 101.0042395  20.1661927  61.7294727  95.2637226  17.3774327  59.6349736
  94.3940535  17.6707893  59.3632325  95.4996706  17.9614772  60.3557000
 103.3896043  21.5606100  58.1859323 103.8650165  21.7533747  57.3778174
 102.4661609  21.6165286  57.9402706  90.2779550  22.7230268  47.7690401
  90.0325592  21.8192598  47.9670611  90.4475464  22.7247418  46.8269879
  97.9676260  13.5953944  57.1515157  98.4858204  14.3314971  56.8261645
  97.6131392  13.9017937  57.9861916  89.5475197  18.4558625  45.2676563
  88.8544442  18.5302980  44.6116599  89.3026949  17.6918969  45.7898079
  96.0222322  29.1913220  44.2341080  95.4496289  29.8103408  43.7811551
  96.5955116  29.7412582  44.7681002 102.0897712  18.4371861  56.4187628
 103.0415135  18.5369958  56.4399852 101.9201163  17.6450129  56.9285713
 100.1112092  15.5227444  56.6047029  99.5162024  15.8032456  55.9093518
  99.8261788  16.0121345  57.3763770  99.2419582  29.4750371  45.3649662
 100.1750255  29.4095932  45.5682537  99.1542795  30.3106637  44.9064195
 101.8707599  28.7916241  42.3253609 101.7921230  28.4576105  43.2189367
 102.6917266  29.2838009  42.3245082  96.4069121  20.5274033  41.5757132
  97.3528226  20.3980241  41.6445550  96.0283366  19.7888695  42.0526560
  96.2907813  24.5791779  63.0357789  97.2110823  24.7570378  63.2297836
  96.2557396  23.6347825  62.8837488  94.5912038  18.4524010  41.5112017
  93.6843493  18.1557122  41.5874731  94.8688019  18.1553828  40.6446304
  85.5089978  19.7730373  51.9611064  85.1892763  18.9195681  51.6685438
  84.9623407  19.9878951  52.7169031  89.2869886  22.4892814  55.6780570
  89.5055896  23.4209922  55.6968604  89.6995660  22.1300788  56.4635374
  94.1597751  18.0626020  65.0683319  94.0594478  19.0120377  64.9995410
  93.9419293  17.7344259  64.1959389  93.3610823  15.3110945  41.6523997
  94.2229987  15.6365843  41.9119814  93.5461167  14.5242441  41.1397062
  85.3778238  23.3933284  53.9304185  84.6841710  22.9787237  53.4174140
  86.1251229  23.4353821  53.3337604  94.0229021  21.4923159  63.8848381
  93.5396103  22.2923519  64.0912270  94.1089960  21.5031103  62.9315825
  87.2914981  23.3251538  51.8070200  87.2685669  23.4239226  50.8552083
  87.6015617  24.1716689  52.1287366  89.9502359  25.3827693  55.9216815
  90.9045612  25.3511636  55.8546746  89.7514882  24.9218317  56.7367041
  90.5401741  23.9528809  58.4887612  91.3594630  24.4472888  58.5122450
  90.8138549  23.0360777  58.4605180 100.2968337  16.3439562  47.8515568
  99.4094192  16.6289212  47.6335763 100.7122326  16.1833325  47.0042845
 103.6482873  16.3686083  51.5669907 104.4243263  16.8582535  51.8394524
 102.9231007  16.7944137  52.0241777  88.3052588  30.9247313  52.9387012
  88.1707055  30.1647714  52.3725011  87.8884650  31.6488213  52.4715801
  99.4411551  26.1084236  41.9463588 100.1447401  26.3134239  42.5621243
  98.7174199  26.6760998  42.2112671 100.2709361  21.8594098  48.0665858
 100.2144562  22.3162649  47.2273490 100.8237703  21.0984782  47.8888701
 104.0814167  17.6483829  48.8915977 103.8251101  17.2480465  49.7224185
 103.4567035  18.3627623  48.7666117  91.4621713  31.8216630  53.1505455
  91.3454098  32.7662062  53.0484145  90.6414160  31.5190191  53.5391254
 101.3498248  26.5466766  43.9962048 102.1843852  26.1147964  43.8139523
 101.1882591  26.3748779  44.9238942 101.0044140  23.0498879  45.3618387
 100.9492944  22.8843150  44.4206831 100.3790195  23.7574912  45.5180577
  85.7936655  18.2866943  59.1879809  86.4395519  17.7765897  59.6767035
  85.5853806  19.0235625  59.7623235  98.3190047  25.3547791  64.6871950
  99.1881207  25.5288443  64.3258585  97.8396799  26.1742208  64.5647679
  94.3140266  12.5506988  44.9403706  94.3018935  13.4948828  45.0971976
  95.2063687  12.3677133  44.6463167  92.4876228  32.4744892  56.3661384
  93.3903474  32.5068502  56.6827879  92.2613598  31.5445343  56.3807719
  94.2429830  31.2275878  53.0271462  93.2925461  31.2277740  52.9135834
  94.5462316  30.4808613  52.5107497  90.1334146  15.4334560  63.2854824
  90.9965608  15.0771365  63.4958148  89.5599557  15.0948455  63.9730228
 102.6459045  38.8699321  50.0175640 102.0823910  38.7789258  49.2491928
 102.5311440  38.0499226  50.4978133 100.1923477  40.3650513  52.8559861
 100.9844769  40.0241337  52.4406160 100.4320127  40.4745488  53.7762014
 102.1514231  39.6259426  45.7277239 102.9245107  39.0788413  45.5890115
 102.5039630  40.4903675  45.9391701 103.9899273  40.9535808  58.9344139
 103.6989139  41.8581439  58.8190805 104.6256258  40.9952336  59.6488208
 104.4880509  35.7852092  43.3595689 104.7406029  35.2633613  42.5979152
 103.5505068  35.6218238  43.4622373 104.2076797  37.6880198  45.5620064
 104.0913056  37.0125101  46.2301149 104.3179057  37.2012572  44.7452217
 102.4001640  37.0911021  51.9630637 101.4752137  36.9587235  52.1708329
 102.6486053  37.8705240  52.4600579  99.7610451  36.7344294  52.7974426
  99.8902832  36.9878773  53.7113838  99.0807902  37.3272002  52.4779081
 103.9309938  47.4041544  48.8964900 103.8533968  48.3549369  48.9753381
 103.3271582  47.0587417  49.5539826 102.9209738  39.3731084  53.6698533
 103.4911095  39.8018352  53.0316017 103.5117850  39.0913668  54.3682718
 103.4134904  34.5394511  61.9159544 102.7833565  35.2210792  62.1494941
 103.3070992  34.4277593  60.9712682  98.7079877  34.2066307  52.8425468
  97.9178931  34.4623836  52.3665579  99.1991124  35.0214645  52.9477509
 100.6594622  34.5710886  49.8008945  99.8625785  34.6829581  50.3192441
 100.4320214  34.9097539  48.9349835  96.9917580  34.4596798  55.2740459
  97.2425618  35.3443807  55.5398035  97.5277128  34.2801399  54.5015551
 102.6915647  28.8415277  64.2784795 102.2982592  28.2881475  64.9532439
 103.5081787  29.1525855  64.6691313  99.6577705  40.2799135  48.1898365
 100.1702225  41.0742385  48.3403930 100.3100417  39.5825426  48.1231966
 101.4672589  43.3964891  50.2721118 101.6439218  44.3182856  50.0842102
 102.2629423  43.0823311  50.7015498 100.7524946  35.4429523  60.1483281
 100.6378461  34.5414781  60.4490380  99.8969464  35.6893220  59.7968098
 102.5903905  44.9143065  56.2731460 103.1411330  44.7860129  55.5008454
 101.7515381  45.2137954  55.9226353  97.6226621  38.6087789  48.9657936
  98.4601843  39.0184798  48.7491643  97.8004889  37.6687232  48.9358129
 102.4842516  30.9699852  50.4901115 103.0586268  30.7475033  49.7574308
 103.0713499  31.0388546  51.2429716 102.8112103  33.0004313  44.5097000
 101.9749416  33.3378999  44.8306275 102.6716873  32.8653293  43.5724137
 104.7865184  27.8441101  49.2176185 104.1329596  27.5290118  48.5932799
 104.7445658  27.2216841  49.9436008  97.6452793  35.9478505  49.6368669
  97.4477192  35.3547865  48.9119736  97.0899457  35.6430715  50.3544608
 103.5641876  34.4578671  49.5153641 102.7509742  34.7572842  49.9218833
 104.0600870  34.0634360  50.2328123 103.0555951  32.0297026  55.1314876
 103.6955330  31.8885786  54.4337839 102.2233481  31.7431540  54.7553478
 103.8316255  41.3299457  51.2449868 104.6256853  40.8349777  51.0432443
 103.1207947  40.8017320  50.8817574 100.1399018  35.4742539  47.3209621
  99.2096606  35.4126994  47.5379583 100.2356490  34.9518491  46.5246262
 100.0584567  31.9997351  49.9087863 100.3191385  32.9142685  49.7997023
 100.8801740  31.5321794  50.0584476 101.5309493  33.4135109  57.0786687
 102.2032546  33.2052471  56.4299336 100.7039279  33.2157195  56.6391920
 101.9336990  36.6877712  57.8389124 101.7956788  35.9557950  58.4400663
 102.8441913  36.5986612  57.5573312 103.2748225  33.3862889  59.1468444
 102.7385582  32.9353627  59.7990040 102.6864933  33.5208798  58.4038908
 101.5696768  50.1526938  53.0413102 101.8093366  50.7845462  53.7192121
 100.7265965  49.8014978  53.3278461 102.6850484  32.8451540  41.7094907
 101.8079950  32.7240341  41.3457154 103.1608237  32.0537619  41.4573796
  94.2052624  37.6328700  51.8036414  94.8923663  37.3190430  51.2157430
  94.0500752  38.5370065  51.5303666  99.0087346  32.5218897  56.2321438
  98.9245535  31.9144566  55.4971848  98.1870052  33.0127915  56.2330934
 103.5935227  43.6087338  58.4218336 104.2944686  44.2423821  58.5747730
 103.1230342  43.9502070  57.6613975  99.1902945  43.1423693  55.3549438
  99.7756382  42.3967381  55.4877343  98.9927784  43.4527650  56.2386102
 102.0441600  46.1774940  50.3711881 101.3751976  46.6621068  49.8875921
 101.9054470  46.4244161  51.2855259  93.7820600  35.7129293  54.0753881
  93.8204699  35.1792884  54.8691000  93.2760893  35.1864499  53.4564859
 101.1611362  30.5593834  57.5716424 101.2252689  31.4208665  57.1593821
 101.0978482  29.9467835  56.8388782 100.6363635  32.6316966  61.2189458
 101.2635673  32.2494044  61.8326982  99.7791553  32.4131168  61.5845151
  97.4129177  34.4393395  47.1507813  97.7082618  33.5304074  47.0974867
  96.5117213  34.4181135  46.8288815 100.9423424  32.5149392  53.1335361
 100.2210010  33.1285360  52.9942835 101.7316680  33.0507157  53.0552007
 103.7449738  29.8503819  59.4076013 104.2684140  30.0966115  60.1702323
 103.5262071  30.6823853  58.9879151  99.1417019  32.1207493  47.2747138
  98.8129725  31.2404872  47.0922244  99.4956390  32.0655162  48.1623527
 102.2558842  32.4080463  47.6422616 102.5954915  32.9366384  46.9201224
 102.7030963  32.7460869  48.4181182 104.9502283  30.7917514  57.0925684
 104.6099103  29.9925327  57.4946364 104.2441289  31.0919224  56.5202517
 104.2426989  30.9055085  45.8415908 104.9635352  31.2836337  45.3379625
 103.6192293  31.6243961  45.9450886 103.1257334  34.5685947  53.3544985
 102.9801914  34.8826250  54.2469267 102.6482537  35.1870847  52.8015884
  97.6002996  37.1091291  56.2932647  97.0556464  37.8851099  56.4252921
  98.4782346  37.4562096  56.1351768 104.3890612  30.4402875  48.6713445
 104.5106524  29.5119521  48.8704333 104.0992655  30.4541561  47.7591761
  98.3869018  36.2361187  59.1862803  97.6450754  36.3843823  59.7727434
  98.0661762  36.4969453  58.3229553  98.8325631  44.1226616  51.2173198
  99.6583651  43.8230388  50.8371842  98.4819683  43.3534239  51.6662987
 103.8007164  43.4753084  53.2870872 103.1787174  42.8123789  52.9873100
 104.4712031  43.5014216  52.6044519  97.0334236  42.0412943  52.1762132
  96.1966145  41.6135117  51.9946133  97.0057882  42.2345386  53.1132923
 103.8731692  31.9534872  62.8803378 103.9219847  32.8296995  62.4981147
 104.4154206  31.4112265  62.3075021 103.3620671  42.0257008  46.7629332
 103.5108792  42.7092472  46.1096005 104.1687115  42.0062098  47.2778788
 101.1173304  38.0522185  47.7690401 100.8719346  37.1484515  47.9670611
 101.2869219  38.0539336  46.8269879 100.3868952  33.7850543  45.2676563
  99.6938197  33.8594898  44.6116599 100.1420704  33.0210887  45.7898079
  96.3483733  35.1022291  51.9611064  96.0286517  34.2487599  51.6685438
  95.8017161  35.3170869  52.7169031 100.1263640  37.8184732  55.6780570
 100.3449650  38.7501839  55.6968604 100.5389414  37.4592706  56.4635374
 104.9991506  33.3917937  65.0683319 104.8988233  34.3412294  64.9995410
 104.7813048  33.0636176  64.1959389  96.2171993  38.7225202  53.9304185
  95.5235464  38.3079155  53.4174140  96.9644984  38.7645739  53.3337604
 104.8622776  36.8215076  63.8848381 104.3789857  37.6215436  64.0912270
 104.9483715  36.8323021  62.9315825  98.1308735  38.6543456  51.8070200
  98.1079423  38.7531143  50.8552083  98.4409372  39.5008607  52.1287366
 100.7896113  40.7119611  55.9216815 101.7439367  40.6803553  55.8546746
 100.5908637  40.2510235  56.7367041 101.3795495  39.2820727  58.4887612
 102.1988384  39.7764806  58.5122450 101.6532303  38.3652695  58.4605180
  99.1446342  46.2539230  52.9387012  99.0100810  45.4939631  52.3725011
  98.7278404  46.9780130  52.4715801 102.3015468  47.1508547  53.1505455
 102.1847852  48.0953980  53.0484145 101.4807914  46.8482109  53.5391254
  96.6330410  33.6158861  59.1879809  97.2789273  33.1057815  59.6767035
  96.4247561  34.3527543  59.7623235 103.3269982  47.8036809  56.3661384
 104.2297229  47.8360420  56.6827879 103.1007352  46.8737260  56.3807719
 100.9727901  30.7626478  63.2854824 101.8359362  30.4063283  63.4958148
 100.3993311  30.4240373  63.9730228 104.6214354  51.0421211  54.0753881
 104.6598454  50.5084802  54.8691000 104.1154647  50.5156417  53.4564859
  90.7303015  11.8297143  39.7658409  90.9699613  12.4615667  40.4437427
  89.8872211  11.4785183  40.0523768 102.6459046  15.8761444  36.7420947
 102.0823911  15.7851381  35.9737235 102.5311441  15.0561348  37.2223439
 100.1923478  17.3712635  39.5805167 100.9844770  17.0303460  39.1651467
 100.4320128  17.4807610  40.5007321 102.1514232  16.6321549  32.4522546
 102.9245108  16.0850536  32.3135422 102.5039631  17.4965798  32.6637008
 103.9899275  17.9597931  45.6589445 103.6989141  18.8643562  45.5436112
 104.6256259  18.0014458  46.3733515 103.9309940  24.4103667  35.6210207
 103.8533969  25.3611492  35.6998687 103.3271583  24.0649539  36.2785133
 102.9209739  16.3793206  40.3943839 103.4911096  16.8080475  39.7561324
 103.5117851  16.0975791  41.0928025  99.6577706  17.2861258  34.9143672
 100.1702226  18.0804508  35.0649236 100.3100419  16.5887548  34.8477273
 101.4672591  20.4027014  36.9966425 101.6439219  21.3244979  36.8087409
 102.2629424  20.0885433  37.4260805 102.5903906  21.9205188  42.9976767
 103.1411331  21.7922251  42.2253761 101.7515382  22.2200077  42.6471660
  97.6226623  15.6149912  35.6903242  98.4601845  16.0246920  35.4736950
  97.8004890  14.6749354  35.6603436 103.8316256  18.3361579  37.9695175
 104.6256855  17.8411900  37.7677750 103.1207948  17.8079443  37.6062881
 101.5696769  27.1589061  39.7658409 101.8093368  27.7907585  40.4437427
 100.7265966  26.8077101  40.0523768  94.2052625  14.6390823  38.5281721
  94.8923665  14.3252553  37.9402736  94.0500754  15.5432187  38.2548972
 103.5935228  20.6149461  45.1463642 104.2944688  21.2485944  45.2993037
 103.1230343  20.9564192  44.3859282  99.1902946  20.1485816  42.0794745
  99.7756383  19.4029504  42.2122649  98.9927785  20.4589772  42.9631409
 102.0441602  23.1837063  37.0957187 101.3751977  23.6683191  36.6121227
 101.9054471  23.4306284  38.0100566  93.7820601  12.7191416  40.7999188
  93.8204701  12.1855007  41.5936306  93.2760894  12.1926621  40.1810165
  97.6002997  14.1153414  43.0177953  97.0556465  14.8913222  43.1498228
  98.4782347  14.4624218  42.8597075  98.8325632  21.1288739  37.9418505
  99.6583652  20.8292511  37.5617148  98.4819684  20.3596361  38.3908293
 103.8007166  20.4815207  40.0116178 103.1787175  19.8185912  39.7118406
 104.4712033  20.5076339  39.3289826  97.0334238  19.0475065  38.9007438
  96.1966146  18.6197240  38.7191440  97.0057883  19.2407508  39.8378229
 103.3620673  19.0319130  33.4874639 103.5108793  19.7154595  32.8341312
 104.1687116  19.0124220  34.0024095 101.1173306  15.0584308  34.4935708
 100.8719347  14.1546638  34.6915918 101.2869220  15.0601458  33.5515186
 100.1263642  14.8246854  42.4025877 100.3449651  15.7563962  42.4213911
 100.5389415  14.4654829  43.1880681  96.2171994  15.7287325  40.6549492
  95.5235466  15.3141278  40.1419446  96.9644985  15.7707861  40.0582911
  98.1308737  15.6605579  38.5315507  98.1079425  15.7593266  37.5797390
  98.4409373  16.5070729  38.8532673 100.7896115  17.7181734  42.6462121
 101.7439368  17.6865676  42.5792053 100.5908638  17.2572357  43.4612347
 101.3795497  16.2882850  45.2132919 102.1988386  16.7826928  45.2367756
 101.6532304  15.3714818  45.1850486  99.1446343  23.2601353  39.6632319
  99.0100811  22.5001754  39.0970317  98.7278406  23.9842253  39.1961108
 102.3015469  24.1570670  39.8750762 102.1847853  25.1016103  39.7729452
 101.4807915  23.8544232  40.2636561 103.3269983  24.8098932  43.0906690
 104.2297230  24.8422542  43.4073185 103.1007353  23.8799383  43.1053026
 104.6214356  28.0483334  40.7999188 104.6598455  27.5146924  41.5936306
 104.1154648  27.5218539  40.1810165  21.5108563  57.8662210  98.4308876
  20.8596543  58.4516290  98.0442889  22.3052926  58.3968405  98.4903913
  15.4364190  54.9551347  98.8296010  16.2095066  54.4080334  98.6908886
  15.7889589  55.8195597  99.0410471  17.7730468  51.1144013  96.4614460
  18.0255988  50.5925535  95.6997923  16.8355027  50.9510159  96.5641143
  22.9883828  55.5552642  98.9677860  22.3529661  55.6287269  99.6798764
  22.6581234  56.1446241  98.2896939  17.4926757  53.0172119  98.6638835
  17.3763015  52.3417023  99.3319919  17.6029016  52.5304493  97.8470988
  19.4763784  47.5072166  97.3646872  19.6438187  48.3752403  97.7317344
  19.2860953  47.6699448  96.4408162  19.4553005  49.9629824  98.3493539
  19.3352631  50.4086874  99.1879020  18.7605594  50.3115141  97.7907077
  17.2159897  62.7333465 101.9983671  17.1383927  63.6841290 102.0772151
  16.6121541  62.3879338 102.6558597  25.1538071  50.4351297  99.1773873
  26.0655928  50.6678684  99.0021571  24.6447719  51.0188341  98.6148952
  27.6396886  56.3531553 103.9231819  26.9547924  56.7330454 103.3728852
  27.7240735  56.9626880 104.6563766  19.3135616  55.1551523 103.8337540
  19.7773961  55.4339226 103.0442162  19.0492414  54.2534968 103.6510631
  18.2504502  51.2774676 100.6427105  18.9528545  51.7295719 101.1101031
  17.9185130  50.6358495 101.2706998  34.0999638  53.2202216 105.0434491
  33.3463347  52.6509614 104.8878495  34.2347179  53.1864881 105.9905126
  19.4898266  58.0915618 100.7189210  19.3543941  58.9367154 101.1474058
  20.0308079  58.2934896  99.9555144  12.9427664  55.6091056 101.2917135
  13.4552184  56.4034307 101.4422700  13.5950377  54.9117347 101.2250737
  22.8041013  51.6054791  97.7560539  22.2887636  52.3759396  97.9948926
  22.5318321  50.9319927  98.3793600  27.7775287  54.3587146  99.6913712
  27.0004730  54.0198305  99.2468874  28.4566768  54.3639769  99.0168677
  22.5927316  49.4781883  99.5820320  22.2877451  49.7928033 100.4330463
  23.5457758  49.5563303  99.6247653  21.0373748  55.6372107 101.2313274
  20.5095109  54.9024866 100.9186511  20.5361250  56.4146783 100.9853242
  26.0166594  53.8321127 106.3480320  25.3590268  54.5220389 106.4360449
  26.8206993  54.2217559 106.6914307  24.8272052  52.1865500 104.3984262
  25.3403934  52.8195492 104.9005972  25.4773276  51.5866695 104.0327622
  16.0962062  48.3296234  97.6115771  15.2599375  48.6670921  97.9325046
  15.9566832  48.1945214  96.6742908  19.1826348  53.4552317  94.2348247
  18.2753410  53.2241570  94.4339396  19.6797380  52.6589936  94.4222229
  22.0894427  62.1649824  97.1544933  21.4156125  62.4681521  97.7629891
  22.4760249  62.9678905  96.8050390  22.0887931  51.0606371 101.7745283
  22.8359750  51.5727768 101.4652405  22.3579521  50.7390424 102.6349676
  20.3614581  53.5564912  98.7572237  19.4525801  53.2723945  98.8544707
  20.3909665  53.9763990  97.8975544  25.5933849  57.1671501 102.5263405
  25.1396176  56.3262411 102.5828595  24.9627815  57.8032900 102.8638185
  24.0366788  59.0047998 103.4613223  24.3289762  59.5653055 102.7425588
  24.5465408  59.2976559 104.2166382  20.0590669  55.0973656  96.0960316
  19.6210099  54.3809514  95.6365953  20.8001110  55.3249770  95.5345407
  19.0000413  59.7828349 104.5506676  18.9576592  60.0089195 103.6215208
  19.9163112  59.5491724 104.6992477  28.1763784  53.3730853 102.1536634
  28.0381682  53.5632449 101.2257823  27.8200003  54.1350235 102.6104685
  28.2033163  55.4407380 107.1647906  28.6369670  55.3482669 108.0130960
  28.9164744  55.4164880 106.5267922  20.2885642  62.3329497  99.3692012
  20.4637398  61.8617540 100.1837635  19.6018430  62.9595263  99.5973273
  24.1801897  53.9558037  95.6892373  23.5631067  53.2304865  95.5925426
  23.7118385  54.7167397  95.3459448  15.9700443  48.1743461  94.8113678
  15.0929909  48.0532262  94.4475924  16.4458196  47.3829540  94.5592566
  19.1564369  60.5269752 102.0576198  18.3731891  61.0691432 102.1514423
  19.8557114  61.0443731 102.4570439  30.3190776  52.0404747 106.3428695
  30.3080652  52.9229462 105.9722628  29.4508156  51.6876298 106.1483232
  23.5490799  55.0936069 102.2748827  22.6147078  55.2137531 102.1053531
  23.7267468  54.1908535 102.0108837  26.9363351  50.9353388 102.8098861
  27.4023803  51.7681379 102.7359164  27.3870851  50.4698369 103.5144120
  25.0039582  57.2797209  99.8085013  25.2799426  57.1653804 100.7178887
  24.1344081  56.8814694  99.7697186  21.6393646  61.5283560 103.4517827
  21.8216040  60.7105216 103.9145579  22.4626632  61.7451252 103.0142717
  21.9735811  60.4551745 100.7132875  22.5023578  59.9444200 100.1003037
  22.2364031  60.1394275 101.5778408  22.6065215  61.4892581 107.0576992
  22.4816355  60.6882321 106.5487937  23.2644306  61.9838774 106.5690962
  21.6746557  59.0854317 104.8860894  21.5271519  58.1571024 105.0668464
  22.5000050  59.1074408 104.4017969  25.2780679  59.9082876 105.9725767
  26.2027226  59.7025737 105.8350218  25.1095982  59.6599277 106.8815108
  21.6708071  46.9392155  99.8793011  21.8871686  47.8216793  99.5781839
  21.1902138  46.5478368  99.1498653  25.0675995  60.4268543 101.3287858
  25.2412872  59.8614966 100.5761711  25.5604886  61.2269438 101.1467348
  30.9215386  53.1904966 102.9478158  31.3646532  52.4412291 102.5497281
  30.0441896  53.1815103 102.5651890  26.0551167  59.7435308  98.4284756
  26.7502072  60.3642000  98.6472071  26.3974318  58.8930659  98.7037134
  27.9542591  57.1935013  99.9572087  28.4793915  57.5322286  99.2321407
  27.8664943  56.2582029  99.7735222  16.6470630  57.3548929  99.8648103
  16.7958751  58.0384393  99.2114775  17.4537074  57.3354019 100.3797558
  30.4648251  54.6610205 105.3400605  31.2995142  55.1000009 105.5038166
  30.6007380  54.1848858 104.5208851  20.1466036  59.8497059  97.3359850
  19.5740003  60.4687246  96.8830322  20.7198830  60.3996421  97.8699772
  23.3663296  60.1334209  98.4668432  24.2993969  60.0679771  98.6701308
  23.2786508  60.9690476  98.0082965  25.9951312  59.4500080  95.4272380
  25.9164944  59.1159943  96.3208138  26.8160979  59.9421848  95.4263852
  20.5312834  51.1857872  94.6775902  21.4771939  51.0564080  94.7464321
  20.1527079  50.4472534  95.1545331  34.5106053  53.3777826 107.7754735
  35.2409442  53.1163114 108.3362439  33.9012999  52.6406548 107.8156803
  18.7155752  49.1107848  94.6130788  17.8087207  48.8140961  94.6893501
  18.9931733  48.8137667  93.7465074  17.4854536  45.9694784  94.7542767
  18.3473700  46.2949682  95.0138584  17.6704880  45.1826280  94.2415833
  24.4212051  47.0023401 100.9534338  23.5337906  47.2873051 100.7354533
  24.8366040  46.8417164 100.1061615  23.5655264  56.7668075  95.0482358
  24.2691114  56.9718078  95.6640014  22.8417913  57.3344837  95.3131442
  24.3953074  52.5177936 101.1684628  24.3388276  52.9746488 100.3292261
  24.9481417  51.7568621 100.9907471  28.2057880  48.3067668 101.9934748
  27.9494815  47.9064304 102.8242956  27.5810748  49.0211462 101.8684887
  32.5170218  51.0463742 104.5006039  31.9569776  51.1156931 105.2737601
  31.9113722  50.8704726 103.7805535  25.4741962  57.2050604  97.0980818
  26.3087565  56.7731803  96.9158293  25.3126304  57.0332618  98.0257713
  25.1287854  53.7082718  98.4637158  25.0736657  53.5426989  97.5225602
  24.5033909  54.4158751  98.6199347  34.1026237  67.7220256 107.1935995
  34.7404647  67.6027003 106.4899335  33.9847079  68.6701099 107.2523947
  30.9115943  67.6747684 107.1297520  30.5734454  67.5588748 106.2418055
  31.7805711  67.2738849 107.1098526  26.7702759  69.5283160 103.1194411
  26.2067624  69.4373097 102.3510698  26.6555154  68.7083065 103.5996903
  32.3502317  73.1954128  98.4308876  31.6990297  73.7808208  98.0442889
  33.1446680  73.7260323  98.4903913  26.2757944  70.2843265  98.8296010
  27.0488820  69.7372252  98.6908886  26.6283343  71.1487514  99.0410471
  29.0399194  68.9896496 108.6264269  29.6362766  68.7652518 107.9121232
  29.0974165  68.2481241 109.2289717  28.6124222  66.4435931  96.4614460
  28.8649743  65.9217452  95.6997923  27.6748781  66.2802076  96.5641143
  33.6567505  65.4471709 104.2689203  34.4430594  65.0291133 103.9179620
  33.9206209  66.3517802 104.4370851  33.8277582  70.8844560  98.9677860
  33.1923415  70.9579186  99.6798764  33.4974989  71.4738159  98.2896939
  39.0575932  65.3846943 105.1722182  39.7901104  64.8146159 105.4060011
  38.3015288  64.9968543 105.6128687  28.3320511  68.3464037  98.6638835
  28.2156769  67.6708940  99.3319919  28.4422771  67.8596411  97.8470988
  30.6752052  67.8074184 102.3685524  30.3110259  67.2804805 103.0798445
  31.5319168  67.4172653 102.1952009  36.5801353  59.0968517 109.6316790
  36.2484677  59.9663928 109.4078005  35.9846966  58.7804801 110.3110821
  30.3157539  62.8364084  97.3646872  30.4831941  63.7044320  97.7317344
  30.1254708  62.9991365  96.4408162  33.0732872  71.2981063 109.0312703
  32.7733595  72.2006101 108.9228510  32.7283932  71.0313246 109.8833856
  26.5245354  67.7494860 105.0649407  25.5995850  67.6171074 105.2727099
  26.7729767  68.5289079 105.5619350  36.4730016  63.8163603 106.7110140
  35.5646893  63.7479011 106.4168901  36.4217612  64.2935548 107.5391966
  30.2946760  65.2921741  98.3493539  30.1746385  65.7378792  99.1879020
  29.5999348  65.6407059  97.7907077  28.0553652  78.0625383 101.9983671
  27.9777682  79.0133208 102.0772151  27.4515295  77.7171256 102.6558597
  38.3391662  62.0180041 108.4888014  37.6966043  62.3112574 107.8427809
  37.8346591  61.9032962 109.2941211  35.9931826  65.7643214  99.1773873
  36.9049682  65.9970601  99.0021571  35.4841473  66.3480259  98.6148952
  30.6303664  65.1240449 110.1868723  31.4764859  65.5479863 110.3303372
  30.5702301  64.4674073 110.8807286  34.6001408  70.7469033 106.5687455
  33.9710271  70.9114747 105.8663523  34.2127070  71.1610642 107.3398419
  38.4790640  71.6823471 103.9231819  37.7941678  72.0622372 103.3728852
  38.5634489  72.2918797 104.6563766  33.7803109  62.7844817 111.8449897
  33.5364041  63.5386878 111.3084172  34.0563039  63.1630165 112.6797144
  35.7341572  69.3283430 110.5227162  35.9458467  69.9715190 109.8461543
  35.6871320  68.4945746 110.0549092  33.3367801  61.9401250 107.4263734
  32.4752280  62.2382504 107.7180472  33.3630235  62.1571649 106.4944767
  30.1529370  70.4843441 103.8337540  30.6167716  70.7631144 103.0442162
  29.8886168  69.5826886 103.6510631  29.0898256  66.6066593 100.6427105
  29.7922300  67.0587637 101.1101031  28.7578885  65.9650412 101.2706998
  22.8323590  64.8650146 105.9444239  22.0422644  65.1207675 105.4684349
  23.3234838  65.6798484 106.0496279  36.8487400  72.2055385 108.6949519
  37.6704843  71.8035572 108.4132201  36.8449803  72.1023619 109.6465635
  24.7838336  65.2294725 102.9027715  23.9869499  65.3413420 103.4211211
  24.5563928  65.5681377 102.0368606  44.9393393  68.5494134 105.0434491
  44.1857101  67.9801532 104.8878495  45.0740934  68.5156798 105.9905126
  30.3292021  73.4207536 100.7189210  30.1937696  74.2659072 101.1474058
  30.8701833  73.6226814  99.9555144  23.7821418  70.9382974 101.2917135
  24.2945939  71.7326224 101.4422700  24.4344131  70.2409264 101.2250737
  33.6784484  56.9438098 109.2488104  33.3348754  57.8339740 109.1727214
  34.0463447  56.7539756 108.3857689  21.7470335  69.2671628 102.0676706
  22.5845557  69.6768637 101.8510414  21.9248603  68.3271070 102.0376900
  33.6434767  66.9346709  97.7560539  33.1281391  67.7051314  97.9948926
  33.3712076  66.2611845  98.3793600  31.2281878  61.7796410 102.8145777
  30.3723474  61.3903260 102.6351416  31.6408830  61.8588371 101.9545563
  32.7581025  59.3142753 107.2137337  32.2545820  59.2772888 106.4005142
  33.0511632  60.2235496 107.2733994  29.0023911  59.3981483 106.2203519
  29.8676907  59.2024291 105.8609408  29.0701420  59.1691835 107.1472875
  38.6169041  69.6879064  99.6913712  37.8398484  69.3490223  99.2468874
  39.2960522  69.6931687  99.0168677  33.4321070  64.8073801  99.5820320
  33.1271206  65.1219950 100.4330463  34.3851512  64.8855221  99.6247653
  31.8767502  70.9664024 101.2313274  31.3488864  70.2316784 100.9186511
  31.3755005  71.7438701 100.9853242  36.8560348  69.1613045 106.3480320
  36.1984023  69.8512306 106.4360449  37.6600747  69.5509477 106.6914307
  26.6086230  61.6283691 103.5919886  27.1829982  61.4058872 102.8593078
  27.1957212  61.6972385 104.3448487  35.6665807  67.5157418 104.3984262
  36.1797689  68.1487409 104.9005972  36.3167031  66.9158613 104.0327622
  26.9355817  63.6588152  97.6115771  26.0993129  63.9962838  97.9325046
  26.7960586  63.5237131  96.6742908  28.9108897  58.5024940 102.3194955
  28.2573310  58.1873957 101.6951570  28.8689372  57.8800680 103.0454778
  30.0220102  68.7844235  94.2348247  29.1147164  68.5533488  94.4339396
  30.5191134  67.9881854  94.4222229  32.9288181  77.4941742  97.1544933
  32.2549880  77.7973439  97.7629891  33.3154003  78.2970822  96.8050390
  32.1446638  64.9906873 106.6442603  31.2269199  65.2121820 106.4864291
  32.5606781  65.0653184 105.7854310  32.9281686  66.3898289 101.7745283
  33.6753505  66.9019686 101.4652405  33.1973275  66.0682342 102.6349676
  31.2008336  68.8856830  98.7572237  30.2919555  68.6015862  98.8544707
  31.2303420  69.3055908  97.8975544  36.4327603  72.4963419 102.5263405
  35.9789930  71.6554329 102.5828595  35.8021570  73.1324817 102.8638185
  35.3760523  63.4255405 103.7564072  34.6383280  62.9132791 104.0874315
  35.6287296  62.9855787 102.9447349  34.8760542  74.3339916 103.4613223
  35.1683517  74.8944973 102.7425588  35.3859163  74.6268477 104.2166382
  35.4772150  56.2031657 104.3505841  35.7831027  55.3429020 104.0631756
  36.2024755  56.7949277 104.1504835  21.7696506  66.6062344 102.7387439
  21.5720906  66.0131704 102.0138506  21.2143170  66.3014554 103.4563378
  29.7493230  66.4985450 104.8582032  29.8041840  65.5459287 104.7824509
  28.9384432  66.6544889 105.3423331  30.8984424  70.4265573  96.0960316
  30.4603853  69.7101432  95.6365953  31.6394864  70.6541688  95.5345407
  27.6885590  65.1162510 102.6172411  26.8753455  65.4156680 103.0237603
  28.1844584  64.7218199 103.3346894  29.8394168  75.1120267 104.5506676
  29.7970346  75.3381113 103.6215208  30.7556866  74.8783641 104.6992477
  33.2859801  65.5804334 111.4487305  33.6409189  65.8075807 112.3081771
  33.9331933  65.9122711 110.8264561  39.0157538  68.7022770 102.1536634
  38.8775437  68.8924366 101.2257823  38.6593757  69.4642153 102.6104685
  27.1799664  62.6880865 108.2333646  27.8199044  62.5469624 107.5356610
  26.3477195  62.4015379 107.8572248  39.0426918  70.7699297 107.1647906
  39.4763425  70.6774586 108.0130960  39.7558499  70.7456798 106.5267922
  27.9559968  71.9883296 104.3468639  28.7500567  71.4933616 104.1451214
  27.2451661  71.4601159 103.9836344  24.2642732  66.1326378 100.4228391
  23.3340320  66.0710833 100.6398354  24.3600204  65.6102330  99.6265033
  24.1828281  62.6581190 103.0106633  24.4435098  63.5726524 102.9015794
  25.0045453  62.1905633 103.1603246  39.9042467  70.8122998 109.6980791
  40.0978358  71.7168808 109.9440066  39.8043086  70.3530417 110.5319376
  31.5578778  60.6980888 112.1971119  30.9106693  61.3970838 112.1035595
  32.3279794  61.1317032 112.5647367  31.7342913  68.5361653 110.2567938
  32.6634973  68.6872813 110.0836906  31.3133943  68.6245674 109.4016585
  31.1279396  77.6621414  99.3692012  31.3031152  77.1909457 100.1837635
  30.4412184  78.2887180  99.5973273  32.0836460  71.9393920 105.4155314
  31.7486292  71.8994690 106.3112964  31.5840405  71.2738636 104.9425724
  35.0195651  69.2849955  95.6892373  34.4024822  68.5596783  95.5925426
  34.5512140  70.0459315  95.3459448  26.8094197  63.5035379  94.8113678
  25.9323663  63.3824180  94.4475924  27.2851950  62.7121457  94.5592566
  36.6767190  71.9588447 111.5812133  35.7893969  71.6214369 111.7038532
  37.2465741  71.2271478 111.8180899  29.9958123  75.8561669 102.0576198
  29.2125645  76.3983350 102.1514423  30.6950868  76.3735649 102.4570439
  33.3054773  61.6656299 104.7010403  33.8023473  60.9126261 104.3811474
  32.5341755  61.7020616 104.1353613  41.1584531  67.3696664 106.3428695
  41.1474407  68.2521380 105.9722628  40.2901910  67.0168215 106.1483232
  34.3884554  70.4227986 102.2748827  33.4540833  70.5429449 102.1053531
  34.5661222  69.5200453 102.0108837  29.8889742  63.8073682 104.4282088
  29.5187529  63.2544722 105.1162994  30.3848834  63.2031815 103.8757088
  37.7757105  66.2645305 102.8098861  38.2417557  67.0973297 102.7359164
  38.2264606  65.7990287 103.5144120  35.8433336  72.6089127  99.8085013
  36.1193180  72.4945721 100.7178887  34.9737835  72.2106612  99.7697186
  35.7473768  58.6325892 106.8489762  34.8336848  58.8630119 107.0171969
  36.1766869  58.7164337 107.7003795  35.5180226  66.8215784 109.3489656
  34.8651677  67.0691692 108.6942109  35.8960606  66.0079923 109.0152134
  32.4787400  76.8575478 103.4517827  32.6609795  76.0397134 103.9145579
  33.3020386  77.0743170 103.0142717  32.8129566  75.7843663 100.7132875
  33.3417332  75.2736117 100.1003037  33.0757785  75.4686193 101.5778408
  21.5372891  65.0977234 100.2526583  21.8326332  64.1887913 100.1993637
  20.6360927  65.0764974  99.9307586  33.4458970  76.8184498 107.0576992
  33.3210109  76.0174238 106.5487937  34.1038061  77.3130692 106.5690962
  25.0667138  63.1733231 106.2354132  24.3453724  63.7869199 106.0961605
  25.8560394  63.7090996 106.1570778  35.5093878  74.6193519 108.6856542
  34.5624214  74.4998870 108.6134868  35.8576651  73.7316017 108.7682803
  23.2660732  62.7791332 100.3765908  22.9373439  61.8988711 100.1941014
  23.6200103  62.7239001 101.2642298  32.5140311  74.4146235 104.8860894
  32.3665274  73.4862942 105.0668464  33.3393805  74.4366325 104.4017969
  26.3802556  63.0664302 100.7441386  26.7198628  63.5950223 100.0219994
  26.8274676  63.4044708 101.5199953  36.1174433  75.2374793 105.9725767
  37.0420981  75.0317655 105.8350218  35.9489737  74.9891195 106.8815108
  29.0745996  61.4501353 110.1944454  28.7342817  60.6509166 110.5965134
  28.3685003  61.7503063 109.6221287  29.7262468  58.5350665 108.6471777
  30.5488538  58.0611143 108.5250667  29.9700532  59.3141149 109.1470463
  28.3670703  61.5638923  98.9434679  29.0879065  61.9420176  98.4398396
  27.7436007  62.2827800  99.0469657  32.5101826  62.2684072  99.8793011
  32.7265440  63.1508710  99.5781839  32.0295893  61.8770286  99.1498653
  27.2501047  65.2269786 106.4563756  27.1045628  65.5410089 107.3488037
  26.7726251  65.8454686 105.9034654  29.1097430  62.2172334 106.5044645
  29.0958999  61.3213427 106.1676943  29.8269858  62.2242997 107.1382931
  30.9623561  62.6509674 108.5497773  30.7041338  63.5726744 108.5482103
  30.4308601  62.2540108 109.2398237  35.9069749  75.7560461 101.3287858
  36.0806627  75.1906883 100.5761711  36.3998641  76.5561356 101.1467348
  28.5134326  61.0986714 101.7732215  28.6350237  60.1703360 101.9723103
  28.2236368  61.1125400 100.8610531  31.3825516  58.7841624 104.9098935
  31.4047213  58.8480957 103.9550915  31.7993575  57.9446133 105.1039441
  41.7609141  68.5196884 102.9478158  42.2040287  67.7704209 102.5497281
  40.8835651  68.5107020 102.5651890  36.8944922  75.0727225  98.4284756
  37.5895827  75.6933918  98.6472071  37.2368072  74.2222577  98.7037134
  38.7936345  72.5226931  99.9572087  39.3187669  72.8614204  99.2321407
  38.7058698  71.5873946  99.7735222  27.4864385  72.6840847  99.8648103
  27.6352505  73.3676311  99.2114775  28.2930828  72.6645937 100.3797558
  35.8931889  65.9883229 113.8915320  36.7941751  65.8489694 113.5999318
  35.9679863  66.1537684 114.8313498  41.3042005  69.9902122 105.3400605
  42.1388897  70.4291926 105.5038166  41.4401134  69.5140775 104.5208851
  38.3533511  67.5481857 111.2878093  38.8287633  67.7409503 110.4796945
  37.4299077  67.6041043 111.0421477  25.2417018  68.7106024 100.8709171
  24.9963060  67.8068354 101.0689382  25.4112932  68.7123175  99.9288649
  32.9313728  59.5829701 110.2533927  33.4495672  60.3190728 109.9280416
  32.5768860  59.8893694 111.0880686  24.5112665  64.4434382  98.3695333
  23.8181910  64.5178737  97.7135369  24.2664417  63.6794725  98.8916850
  33.1826322  56.0029983 105.7734824  33.4628076  55.3353172 106.3995250
  33.9676929  56.1959079 105.2609488  30.9859790  75.1788977  97.3359850
  30.4133757  75.7979164  96.8830322  31.5592584  75.7288339  97.8699772
  37.0535180  64.4247617 109.5206399  38.0052603  64.5245715 109.5418623
  36.8838631  63.6325886 110.0304483  35.0749560  61.5103200 109.7065800
  34.4799492  61.7908213 109.0112288  34.7899256  61.9997101 110.4782541
  34.2057050  75.4626127  98.4668432  35.1387723  75.3971689  98.6701308
  34.1180263  76.2982394  98.0082965  36.8345067  74.7791998  95.4272380
  36.7558698  74.4451861  96.3208138  37.6554734  75.2713765  95.4263852
  39.5323258  67.6453737 108.6348698  39.4999578  66.7069738 108.8208382
  40.1423882  67.7237774 107.9014523  31.3706589  66.5149790  94.6775902
  32.3165694  66.3855998  94.7464321  30.9920834  65.7764452  95.1545331
  39.6817746  64.4364780 108.6806982  39.1656795  63.6523237 108.4936910
  40.5657695  64.1083497 108.8453501  37.3428473  58.1805796 104.6402794
  37.1453295  57.8720884 105.5246126  37.9528179  58.9067435 104.7700724
  45.3499808  68.7069744 107.7754735  46.0803196  68.4455032 108.3362439
  44.7406753  67.9698466 107.8156803  43.4315105  66.8477606 108.3729186
  42.7048269  66.7133571 107.7645678  43.0162392  67.1554435 109.1785904
  29.5549506  64.4399766  94.6130788  28.6480961  64.1432879  94.6893501
  29.8325487  64.1429584  93.7465074  31.1711572  58.9836656 100.7675029
  30.3612300  58.6383741 101.1430275  31.8595989  58.6744200 101.3562641
  33.1002120  58.0614703 102.3899326  33.6533159  58.4810156 103.0489349
  33.3372206  57.1350451 102.4322282  28.3248291  61.2986701  94.7542767
  29.1867455  61.6241600  95.0138584  28.5098635  60.5118197  94.2415833
  36.4780927  60.1715228 101.8977990  35.8979596  60.8300032 101.5156042
  36.2116860  59.3492572 101.4865407  34.9284493  59.5720286 104.0999310
  35.4284272  59.6836820 103.2913629  35.5720101  59.2681338 104.7400119
  35.2605805  62.3315318 100.9534338  34.3731660  62.6164969 100.7354533
  35.6759794  62.1709082 100.1061615  38.6120341  62.3561839 104.6688677
  39.3880731  62.8458292 104.9413294  37.8868475  62.7819893 105.1260547
  41.0492900  63.0689458 105.7262618  41.6437391  62.8285194 105.0155926
  41.1219484  62.3496589 106.3536154  34.4049019  72.0959993  95.0482358
  35.1084869  72.3009995  95.6640014  33.6811667  72.6636755  95.3131442
  35.2346829  67.8469854 101.1684628  35.1782030  68.3038406 100.3292261
  35.7875171  67.0860539 100.9907471  39.0451635  63.6359586 101.9934748
  38.7888569  63.2356222 102.8242956  38.4204503  64.3503380 101.8684887
  43.3563973  66.3755659 104.5006039  42.7963531  66.4448849 105.2737601
  42.7507476  66.1996644 103.7805535  36.3135716  72.5342522  97.0980818
  37.1481320  72.1023721  96.9158293  36.1520059  72.3624536  98.0257713
  35.9681608  69.0374635  98.4637158  35.9130412  68.8718907  97.5225602
  35.3427663  69.7450668  98.6199347  29.2777734  58.5382744  98.0422476
  29.2656403  59.4824584  98.1990747  30.1701156  58.3552890  97.7481937
  33.0929853  55.1325521 102.2968413  32.3262249  54.5784008 102.4425095
  33.5040558  55.2047390 103.1582564  37.6096513  84.8575078 103.1194411
  37.0461378  84.7665015 102.3510698  37.4948908  84.0374982 103.5996903
  43.1896072  88.5246045  98.4308876  42.5384052  89.1100126  98.0442889
  43.9840435  89.0552240  98.4903913  37.1151699  85.6135183  98.8296010
  37.8882575  85.0664170  98.6908886  37.4677098  86.4779432  99.0410471
  39.4517977  81.7727849  96.4614460  39.7043497  81.2509370  95.6997923
  38.5142536  81.6093994  96.5641143  44.6671337  86.2136477  98.9677860
  44.0317170  86.2871104  99.6798764  44.3368743  86.8030076  98.2896939
  39.1714265  83.6755955  98.6638835  39.0550524  83.0000858  99.3319919
  39.2816525  83.1888329  97.8470988  41.5145806  83.1366102 102.3685524
  41.1504014  82.6096723 103.0798445  42.3712922  82.7464571 102.1952009
  41.1551293  78.1656001  97.3646872  41.3225696  79.0336238  97.7317344
  40.9648462  78.3283283  96.4408162  41.1340514  80.6213659  98.3493539
  41.0140139  81.0670710  99.1879020  40.4393103  80.9698977  97.7907077
  46.8325580  81.0935132  99.1773873  47.7443437  81.3262519  99.0021571
  46.3235228  81.6772176  98.6148952  39.9292011  81.9358511 100.6427105
  40.6316054  82.3879555 101.1101031  39.5972639  81.2942330 101.2706998
  33.6717345  80.1942064 105.9444239  32.8816399  80.4499592 105.4684349
  34.1628592  81.0090402 106.0496279  35.6232090  80.5586643 102.9027715
  34.8263253  80.6705337 103.4211211  35.3957682  80.8973295 102.0368606
  34.6215173  86.2674892 101.2917135  35.1339693  87.0618142 101.4422700
  35.2737886  85.5701182 101.2250737  32.5864089  84.5963546 102.0676706
  33.4239311  85.0060554 101.8510414  32.7642357  83.6562988 102.0376900
  44.4828522  82.2638627  97.7560539  43.9675145  83.0343231  97.9948926
  44.2105830  81.5903763  98.3793600  42.0675633  77.1088327 102.8145777
  41.2117229  76.7195178 102.6351416  42.4802584  77.1880288 101.9545563
  39.8417665  74.7273400 106.2203519  40.7070662  74.5316209 105.8609408
  39.9095174  74.4983752 107.1472875  44.2714825  80.1365719  99.5820320
  43.9664960  80.4511868 100.4330463  45.2245267  80.2147139  99.6247653
  42.7161257  86.2955942 101.2313274  42.1882618  85.5608702 100.9186511
  42.2148759  87.0730618 100.9853242  37.4479984  76.9575608 103.5919886
  38.0223736  76.7350790 102.8593078  38.0350967  77.0264303 104.3448487
  37.7749571  78.9880069  97.6115771  36.9386884  79.3254756  97.9325046
  37.6354341  78.8529049  96.6742908  39.7502652  73.8316857 102.3194955
  39.0967064  73.5165874 101.6951570  39.7083126  73.2092598 103.0454778
  40.8613857  84.1136152  94.2348247  39.9540919  83.8825406  94.4339396
  41.3584889  83.3173772  94.4222229  43.7675440  81.7190206 101.7745283
  44.5147259  82.2311604 101.4652405  44.0367030  81.3974259 102.6349676
  42.0402090  84.2148747  98.7572237  41.1313309  83.9307780  98.8544707
  42.0697174  84.6347826  97.8975544  46.2154277  78.7547323 103.7564072
  45.4777034  78.2424709 104.0874315  46.4681051  78.3147704 102.9447349
  46.3165905  71.5323575 104.3505841  46.6224781  70.6720938 104.0631756
  47.0418509  72.1241195 104.1504835  32.6090261  81.9354261 102.7387439
  32.4114660  81.3423622 102.0138506  32.0536925  81.6306472 103.4563378
  41.7378178  85.7557491  96.0960316  41.2997608  85.0393350  95.6365953
  42.4788619  85.9833606  95.5345407  38.5279344  80.4454428 102.6172411
  37.7147210  80.7448598 103.0237603  39.0238338  80.0510116 103.3346894
  35.1036486  81.4618295 100.4228391  34.1734074  81.4002751 100.6398354
  35.1993958  80.9394248  99.6265033  35.0222035  77.9873108 103.0106633
  35.2828853  78.9018441 102.9015794  35.8439208  77.5197551 103.1603246
  45.8589406  84.6141873  95.6892373  45.2418576  83.8888701  95.5925426
  45.3905894  85.3751233  95.3459448  37.6487952  78.8327297  94.8113678
  36.7717418  78.7116098  94.4475924  38.1245705  78.0413375  94.5592566
  44.1448528  76.9948217 104.7010403  44.6417227  76.2418179 104.3811474
  43.3735509  77.0312533 104.1353613  40.7283496  79.1365600 104.4282088
  40.3581284  78.5836640 105.1162994  41.2242589  78.5323733 103.8757088
  32.3766645  80.4269152 100.2526583  32.6720086  79.5179830 100.1993637
  31.4754681  80.4056892  99.9307586  35.9060892  78.5025149 106.2354132
  35.1847478  79.1161116 106.0961605  36.6954148  79.0382913 106.1570778
  34.1054487  78.1083250 100.3765908  33.7767193  77.2280629 100.1941014
  34.4593858  78.0530918 101.2642298  37.2196310  78.3956220 100.7441386
  37.5592383  78.9242141 100.0219994  37.6668431  78.7336626 101.5199953
  39.2064457  76.8930841  98.9434679  39.9272820  77.2712094  98.4398396
  38.5829761  77.6119718  99.0469657  43.3495580  77.5975990  99.8793011
  43.5659195  78.4800628  99.5781839  42.8689647  77.2062203  99.1498653
  39.9491184  77.5464251 106.5044645  39.9352753  76.6505345 106.1676943
  40.6663613  77.5534915 107.1382931  39.3528080  76.4278632 101.7732215
  39.4743992  75.4995278 101.9723103  39.0630123  76.4417318 100.8610531
  42.2219271  74.1133542 104.9098935  42.2440968  74.1772875 103.9550915
  42.6387330  73.2738051 105.1039441  38.3258139  88.0132764  99.8648103
  38.4746260  88.6968229  99.2114775  39.1324583  87.9937854 100.3797558
  36.0810772  84.0397942 100.8709171  35.8356814  83.1360272 101.0689382
  36.2506687  84.0415092  99.9288649  35.3506420  79.7726299  98.3695333
  34.6575665  79.8470654  97.7135369  35.1058172  79.0086643  98.8916850
  44.0220076  71.3321901 105.7734824  44.3021830  70.6645090 106.3995250
  44.8070683  71.5250996 105.2609488  41.8253545  90.5080895  97.3359850
  41.2527512  91.1271082  96.8830322  42.3986339  91.0580256  97.8699772
  47.6738821  90.1083915  95.4272380  47.5952453  89.7743779  96.3208138
  48.4948488  90.6005683  95.4263852  42.2100343  81.8441707  94.6775902
  43.1559448  81.7147916  94.7464321  41.8314588  81.1056369  95.1545331
  48.1822228  73.5097713 104.6402794  47.9847049  73.2012802 105.5246126
  48.7921933  74.2359352 104.7700724  40.3943260  79.7691684  94.6130788
  39.4874716  79.4724797  94.6893501  40.6719242  79.4721502  93.7465074
  42.0105326  74.3128574 100.7675029  41.2006055  73.9675659 101.1430275
  42.6989743  74.0036117 101.3562641  43.9395875  73.3906620 102.3899326
  44.4926913  73.8102074 103.0489349  44.1765961  72.4642368 102.4322282
  39.1642045  76.6278619  94.7542767  40.0261209  76.9533517  95.0138584
  39.3492389  75.8410115  94.2415833  47.3174682  75.5007146 101.8977990
  46.7373351  76.1591950 101.5156042  47.0510614  74.6784490 101.4865407
  45.7678248  74.9012203 104.0999310  46.2678026  75.0128738 103.2913629
  46.4113856  74.5973256 104.7400119  46.0999560  77.6607236 100.9534338
  45.2125415  77.9456887 100.7354533  46.5153549  77.5000999 100.1061615
  45.2442773  87.4251911  95.0482358  45.9478623  87.6301913  95.6640014
  44.5205422  87.9928672  95.3131442  46.0740583  83.1761772 101.1684628
  46.0175785  83.6330323 100.3292261  46.6268926  82.4152456 100.9907471
  49.8845389  78.9651504 101.9934748  49.6282324  78.5648139 102.8242956
  49.2598257  79.6795298 101.8684887  47.1529470  87.8634440  97.0980818
  47.9875074  87.4315638  96.9158293  46.9913813  87.6916453  98.0257713
  46.8075363  84.3666553  98.4637158  46.7524166  84.2010825  97.5225602
  46.1821418  85.0742586  98.6199347  40.1171488  73.8674662  98.0422476
  40.1050158  74.8116502  98.1990747  41.0094910  73.6844807  97.7481937
  43.9323608  70.4617439 102.2968413  43.1656003  69.9075925 102.4425095
  44.3434313  70.5339307 103.1582564  21.5108564  34.8724333  85.1554182
  20.8596544  35.4578413  84.7688196  22.3052927  35.4030528  85.2149220
  15.4364191  31.9613470  85.5541316  16.2095067  31.4142457  85.4154192
  15.7889590  32.8257719  85.7655778  17.7730469  28.1206136  83.1859766
  18.0255990  27.5987657  82.4243229  16.8355028  27.9572281  83.2886450
  22.9883829  32.5614765  85.6923166  22.3529662  32.6349391  86.4044071
  22.6581236  33.1508363  85.0142246  17.4926758  30.0234242  85.3884141
  17.3763016  29.3479145  86.0565226  17.6029018  29.5366616  84.5716294
  19.4763786  24.5134289  84.0892179  19.6438188  25.3814525  84.4562650
  19.2860955  24.6761570  83.1653468  19.4553007  26.9691946  85.0738846
  19.3352632  27.4148997  85.9124326  18.7605595  27.3177264  84.5152384
  17.2159899  39.7395588  88.7228977  17.1383928  40.6903413  88.8017458
  16.6121542  39.3941460  89.3803903  25.1538073  27.4413419  85.9019180
  26.0655929  27.6740806  85.7266878  24.6447720  28.0250464  85.3394259
  27.6396887  33.3593676  90.6477125  26.9547925  33.7392577  90.0974159
  27.7240736  33.9689002  91.3809073  19.3135617  32.1613646  90.5582847
  19.7773962  32.4401349  89.7687469  19.0492415  31.2597090  90.3755937
  18.2504503  28.2836798  87.3672412  18.9528546  28.7357842  87.8346338
  17.9185131  27.6420617  87.9952305  34.0999640  30.2264339  91.7679798
  33.3463348  29.6571737  91.6123802  34.2347181  30.1927003  92.7150432
  19.4898268  35.0977741  87.4434517  19.3543942  35.9429277  87.8719365
  20.0308080  35.2997019  86.6800451  12.9427665  32.6153179  88.0162442
  13.4552186  33.4096429  88.1668007  13.5950378  31.9179469  87.9496043
  14.7522550  35.7318935  90.0985195  14.9289178  36.6536900  89.9106179
  15.5479383  35.4177354  90.5279575  22.8041014  28.6116914  84.4805845
  22.2887637  29.3821519  84.7194233  22.5318322  27.9382050  85.1038907
  27.7775288  31.3649269  86.4159019  27.0004731  31.0260428  85.9714181
  28.4566769  31.3701892  85.7413984  22.5927317  26.4844006  86.3065627
  22.2877453  26.7990155  87.1575770  23.5457759  26.5625426  86.3492960
  21.0373749  32.6434229  87.9558581  20.5095110  31.9086989  87.6431818
  20.5361252  33.4208906  87.7098549  26.0166595  30.8383250  93.0725627
  25.3590269  31.5282511  93.1605756  26.8206994  31.2279682  93.4159613
  24.8272054  29.1927622  91.1229569  25.3403935  29.8257614  91.6251278
  25.4773278  28.5928818  90.7572929  16.0962064  25.3358357  84.3361077
  15.2599376  25.6733043  84.6570352  15.9566833  25.2007336  83.3988214
  19.1826349  30.4614440  80.9593554  18.2753411  30.2303693  81.1584703
  19.6797381  29.6652059  81.1467535  22.0894428  39.1711947  83.8790240
  21.4156127  39.4743644  84.4875198  22.4760250  39.9741027  83.5295697
  22.0887932  28.0668494  88.4990589  22.8359751  28.5789891  88.1897712
  22.3579522  27.7452546  89.3594983  20.3614583  30.5627034  85.4817544
  19.4525802  30.2786067  85.5790014  20.3909666  30.9826113  84.6220851
  25.5933850  34.1733624  89.2508711  25.1396177  33.3324534  89.3073902
  24.9627817  34.8095022  89.5883491  24.0366789  36.0110121  90.1858529
  24.3289764  36.5715178  89.4670895  24.5465410  36.3038682  90.9411689
  20.0590670  32.1035778  82.8205622  19.6210100  31.3871637  82.3611260
  20.8001111  32.3311893  82.2590714  19.0000414  36.7890472  91.2751983
  18.9576593  37.0151318  90.3460515  19.9163113  36.5553846  91.4237784
  28.1763785  30.3792975  88.8781941  28.0381684  30.5694571  87.9503130
  27.8200004  31.1412358  89.3349992  28.2033165  32.4469502  93.8893212
  28.6369671  32.3544791  94.7376266  28.9164745  32.4227003  93.2513228
  20.2885643  39.3391619  86.0937319  20.4637399  38.8679662  86.9082942
  19.6018431  39.9657385  86.3218580  24.1801898  30.9620160  82.4137680
  23.5631069  30.2366988  82.3170733  23.7118386  31.7229520  82.0704754
  14.8546728  42.4880982  92.8677179  15.0943327  43.1199506  93.5456198
  14.0115925  42.1369022  93.1542538  15.9700444  25.1805584  81.5358984
  15.0929910  25.0594385  81.1721231  16.4458197  24.3891662  81.2837873
  19.1564370  37.5331874  88.7821505  18.3731892  38.0753555  88.8759729
  19.8557115  38.0505854  89.1815746  30.3190777  29.0466869  93.0674002
  30.3080654  29.9291585  92.6967935  29.4508157  28.6938420  92.8728539
  23.5490801  32.0998191  88.9994134  22.6147079  32.2199654  88.8298838
  23.7267469  31.1970658  88.7354143  26.9363352  27.9415510  89.5344168
  27.4023804  28.7743502  89.4604470  27.3870853  27.4760492  90.2389426
  25.0039583  34.2859332  86.5330320  25.2799427  34.1715926  87.4424194
  24.1344082  33.8876817  86.4942493  21.6393647  38.5345683  90.1763133
  21.8216042  37.7167338  90.6390886  22.4626633  38.7513375  89.7388023
  21.9735813  37.4613868  87.4378182  22.5023579  36.9506322  86.8248344
  22.2364032  37.1456398  88.3023715  15.3291561  38.5128984  90.1975958
  14.6601936  38.9975112  89.7139998  15.1904430  38.7598205  91.1119336
  22.6065216  38.4954703  93.7822298  22.4816356  37.6944443  93.2733244
  23.2644308  38.9900897  93.2936268  21.6746558  36.0916440  91.6106201
  21.5271521  35.1633147  91.7913771  22.5000052  36.1136530  91.1263276
  25.2780680  36.9144998  92.6971073  26.2027227  36.7087860  92.5595524
  25.1095983  36.6661400  93.6060415  21.6708072  23.9454277  86.6038318
  21.8871687  24.8278915  86.3027146  21.1902140  23.5540491  85.8743960
  25.0675996  37.4330666  88.0533165  25.2412874  36.8677088  87.3007017
  25.5604887  38.2331561  87.8712655  30.9215387  30.1967089  89.6723465
  31.3646533  29.4474414  89.2742588  30.0441898  30.1877225  89.2897196
  26.0551169  36.7497430  85.1530063  26.7502073  37.3704123  85.3717378
  26.3974319  35.8992781  85.4282441  27.9542592  34.1997136  86.6817394
  28.4793916  34.5384409  85.9566714  27.8664944  33.2644151  86.4980528
  19.6383253  40.2669119  91.0412647  19.1988243  39.7745498  91.7345504
  20.3891369  39.7242087  90.8004722  16.6470632  34.3611052  86.5893409
  16.7958752  35.0446516  85.9360082  17.4537075  34.3416142  87.1042865
  30.4648252  31.6672327  92.0645912  31.2995143  32.1062131  92.2283472
  30.6007381  31.1910980  91.2454158  20.1466037  36.8559182  84.0605157
  19.5740004  37.4749369  83.6075628  20.7198831  37.4058544  84.5945079
  23.3663297  37.1396332  85.1913739  24.2993970  37.0741894  85.3946614
  23.2786510  37.9752599  84.7328272  25.9951314  36.4562202  82.1517686
  25.9164945  36.1222066  83.0453444  26.8160980  36.9483970  82.1509159
  20.5312836  28.1919995  81.4021209  21.4771940  28.0626203  81.4709627
  20.1527081  27.4534657  81.8790637  34.5106055  30.3839949  94.5000042
  35.2409443  30.1225237  95.0607745  33.9013000  29.6468671  94.5402110
  18.7155753  26.1169971  81.3376094  17.8087208  25.8203084  81.4138808
  18.9931734  25.8199789  80.4710381  17.4854537  22.9756906  81.4788074
  18.3473701  23.3011805  81.7383891  17.6704882  22.1888402  80.9661139
  24.4212052  24.0085523  87.6779645  23.5337907  24.2935174  87.4599840
  24.8366041  23.8479287  86.8306922  23.5655265  33.7730198  81.7727665
  24.2691115  33.9780200  82.3885320  22.8417914  34.3406960  82.0376748
  24.3953076  29.5240059  87.8929935  24.3388277  29.9808611  87.0537567
  24.9481418  28.7630744  87.7152778  28.2057882  25.3129791  88.7180054
  27.9494816  24.9126427  89.5488262  27.5810750  26.0273585  88.5930194
  32.5170219  28.0525864  91.2251346  31.9569777  28.1219054  91.9982908
  31.9113723  27.8766849  90.5050842  15.5865428  39.4862591  92.9769532
  15.4697812  40.4308024  92.8748222  14.7657874  39.1836153  93.3655331
  25.4741963  34.2112727  83.8226125  26.3087567  33.7793925  83.6403600
  25.3126306  34.0394741  84.7503019  25.1287855  30.7144840  85.1882464
  25.0736659  30.5489112  84.2470908  24.5033910  31.4220873  85.3444654
  18.3673544  38.8921840  92.8535539  17.4169175  38.8923701  92.7399911
  18.6706031  38.1454574  92.3371574  34.1026238  44.7282378  93.9181302
  34.7404648  44.6089125  93.2144642  33.9847081  45.6763222  93.9769254
  30.9115944  44.6809806  93.8542826  30.5734456  44.5650871  92.9663361
  31.7805712  44.2800971  93.8343832  26.7702760  46.5345283  89.8439717
  26.2067625  46.4435220  89.0756005  26.6555155  45.7145187  90.3242210
  31.3935727  45.8344658  99.8129032  31.3824368  45.4397456  98.9409535
  31.5556367  45.1010731 100.4062803  24.3167192  48.0296474  92.6823938
  25.1088484  47.6887299  92.2670237  24.5563842  48.1391449  93.6026091
  32.3502319  50.2016250  85.1554182  31.6990298  50.7870331  84.7688196
  33.1446681  50.7322445  85.2149220  26.2757946  47.2905388  85.5541316
  27.0488822  46.7434375  85.4154192  26.6283345  48.1549637  85.7655778
  28.1142988  48.6181770  98.7608216  27.8232854  49.5227401  98.6454882
  28.7499973  48.6598297  99.4752285  29.0399195  45.9958618  95.3509575
  29.6362767  45.7714641  94.6366538  29.0974167  45.2543364  95.9535023
  28.6124224  43.4498054  83.1859766  28.8649744  42.9279575  82.4243229
  27.6748783  43.2864199  83.2886450  33.6567506  42.4533832  90.9934510
  34.4430596  42.0353255  90.6424927  33.9206211  43.3579924  91.1616158
  33.8277584  47.8906682  85.6923166  33.1923417  47.9641309  86.4044071
  33.4974990  48.4800281  85.0142246  39.0575933  42.3909065  91.8967488
  39.7901105  41.8208282  92.1305318  38.3015289  42.0030666  92.3373994
  28.3320512  45.3526160  85.3884141  28.2156770  44.6771063  86.0565226
  28.4422772  44.8658534  84.5716294  30.6752053  44.8136307  89.0930831
  30.3110260  44.2866928  89.8043752  31.5319169  44.4234776  88.9197316
  36.5801354  36.1030639  96.3562097  36.2484679  36.9726050  96.1323312
  35.9846967  35.7866923  97.0356127  30.3157540  39.8426206  84.0892179
  30.4831943  40.7106443  84.4562650  30.1254709  40.0053488  83.1653468
  33.0732873  48.3043185  95.7558009  32.7733596  49.2068224  95.6473817
  32.7283933  48.0375368  96.6079162  26.5245355  44.7556982  91.7894714
  25.5995851  44.6233196  91.9972406  26.7729768  45.5351201  92.2864656
  36.4730017  40.8225725  93.4355447  35.5646894  40.7541134  93.1414208
  36.4217613  41.2997670  94.2637272  30.2946761  42.2983864  85.0738846
  30.1746386  42.7440915  85.9124326  29.5999349  42.6469182  84.5152384
  23.8854166  44.3990256  92.6238503  24.0146547  44.6524735  93.5377915
  23.2051617  44.9917964  92.3043158  28.0553653  55.0687506  88.7228977
  27.9777683  56.0195331  88.8017458  27.4515297  54.7233378  89.3803903
  30.5470883  42.2415371 101.3790344  29.7704217  42.8009291 101.3693209
  31.1861446  42.7272154 101.9005214  38.3391664  39.0242164  95.2133321
  37.6966044  39.3174697  94.5673115  37.8346592  38.9095084  96.0186517
  35.9931827  42.7705337  85.9019180  36.9049683  43.0032724  85.7266878
  35.4841474  43.3542381  85.3394259  28.8017255  45.0500824 100.9408311
  29.5431940  45.5885868 100.6643135  28.0954241  45.6767113 101.0979863
  34.2772595  47.1929965  99.5380473  34.6855951  46.7512375  98.7935105
  33.5549856  46.6182592  99.7914665  30.6303665  42.1302572  96.9114030
  31.4764860  42.5541985  97.0548679  30.5702303  41.4736196  97.6052593
  34.6001410  47.7531156  93.2932761  33.9710272  47.9176870  92.5908829
  34.2127072  48.1672765  94.0643725  38.4790641  48.6885593  90.6477125
  37.7941680  49.0684495  90.0974159  38.5634491  49.2980920  91.3809073
  33.7803110  39.7906940  98.5695203  33.5364042  40.5449001  98.0329479
  34.0563041  40.1692288  99.4042450  35.7341573  46.3345552  97.2472469
  35.9458468  46.9777312  96.5706850  35.6871321  45.5007869  96.7794399
  33.3367802  38.9463373  94.1509041  32.4752281  39.2444627  94.4425778
  33.3630237  39.1633772  93.2190074  30.1529371  47.4905564  90.5582847
  30.6167717  47.7693267  89.7687469  29.8886169  46.5889008  90.3755937
  27.0453452  47.0377045  93.4962610  27.6154810  47.4664314  92.8580094
  27.6361564  46.7559630  94.1946795  29.0898257  43.6128716  87.3672412
  29.7922301  44.0649760  87.8346338  28.7578886  42.9712535  87.9952305
  22.8323591  41.8712269  92.6689545  22.0422645  42.1269797  92.1929656
  23.3234839  42.6860606  92.7741586  36.8487401  49.2117508  95.4194826
  37.6704845  48.8097695  95.1377508  36.8449804  49.1085742  96.3710942
  24.7838337  42.2356848  89.6273022  23.9869500  42.3475542  90.1456518
  24.5563929  42.5743500  88.7613912  30.6144004  48.7601551  97.5755537
  30.6788437  49.2221958  98.4113708  29.9054928  48.1298916  97.7037846
  21.1161294  42.1242759  95.1004536  21.3669333  43.0089769  95.3662112
  21.6520843  41.9447361  94.3279628  44.9393394  45.5556256  91.7679798
  44.1857102  44.9863654  91.6123802  45.0740935  45.5218921  92.7150432
  30.3292022  50.4269659  87.4434517  30.1937697  51.2721194  87.8719365
  30.8701835  50.6288936  86.6800451  23.7821419  47.9445097  88.0162442
  24.2945940  48.7388347  88.1668007  24.4344132  47.2471387  87.9496043
  25.5916304  51.0610853  90.0985195  25.7682932  51.9828818  89.9106179
  26.3873138  50.7469272  90.5279575  31.9560498  51.0493225 101.5734859
  31.5124353  50.2629604 101.2555763  32.6177712  51.2372376 100.9078750
  26.7147620  52.5789027  96.0995538  27.2655045  52.4506090  95.3272531
  25.8759096  52.8783916  95.7490430  34.0541737  51.3296025  99.6016260
  34.0360212  52.1504906  99.1096529  34.9761657  51.2050100  99.8266401
  30.5114791  48.8440155 100.4439769  31.0443127  48.0828443 100.2139077
  29.9828872  48.5513806 101.1863923  33.6784486  33.9500220  95.9733410
  33.3348755  34.8401862  95.8972521  34.0463448  33.7601878  95.1102995
  21.7470336  46.2733751  88.7922013  22.5845558  46.6830759  88.5755720
  21.9248604  45.3333193  88.7622206  33.6434768  43.9408832  84.4805845
  33.1281392  44.7113436  84.7194233  33.3712077  43.2673968  85.1038907
  31.2281879  38.7858532  89.5391084  30.3723476  38.3965383  89.3596723
  31.6408831  38.8650493  88.6790869  32.7581026  36.3204876  93.9382644
  32.2545822  36.2835011  93.1250449  33.0511633  37.2297618  93.9979300
  29.0023912  36.4043605  92.9448825  29.8676909  36.2086414  92.5854715
  29.0701421  36.1753957  93.8718182  38.6169042  46.6941186  86.4159019
  37.8398485  46.3552346  85.9714181  39.2960523  46.6993809  85.7413984
  33.4321072  41.8135924  86.3065627  33.1271207  42.1282073  87.1575770
  34.3851514  41.8917344  86.3492960  31.8767503  47.9726147  87.9558581
  31.3488865  47.2378907  87.6431818  31.3755006  48.7500823  87.7098549
  36.8560349  46.1675167  93.0725627  36.1984024  46.8574429  93.1605756
  37.6600749  46.5571599  93.4159613  26.6086231  38.6345813  90.3165192
  27.1829983  38.4120995  89.5838385  27.1957213  38.7034508  91.0693793
  35.6665808  44.5219540  91.1229569  36.1797690  45.1549532  91.6251278
  36.3167032  43.9220736  90.7572929  26.9355818  40.6650274  84.3361077
  26.0993130  41.0024961  84.6570352  26.7960588  40.5299254  83.3988214
  28.9108899  35.5087062  89.0440262  28.2573311  35.1936079  88.4196876
  28.8689373  34.8862803  89.7700085  30.0220104  45.7906357  80.9593554
  29.1147165  45.5595611  81.1584703  30.5191136  44.9943977  81.1467535
  32.9288182  54.5003864  83.8790240  32.2549881  54.8035561  84.4875198
  33.3154004  55.3032945  83.5295697  32.1446639  41.9968996  93.3687909
  31.2269200  42.2183943  93.2109597  32.5606783  42.0715306  92.5099617
  32.9281687  43.3960411  88.4990589  33.6753506  43.9081809  88.1897712
  33.1973276  43.0744464  89.3594983  31.2008337  45.8918952  85.4817544
  30.2919556  45.6077985  85.5790014  31.2303421  46.3118031  84.6220851
  36.4327604  49.5025542  89.2508711  35.9789932  48.6616451  89.3073902
  35.8021571  50.1386940  89.5883491  35.3760524  40.4317528  90.4809379
  34.6383281  39.9194914  90.8119621  35.6287298  39.9917909  89.6692656
  34.8760544  51.3402038  90.1858529  35.1683518  51.9007095  89.4670895
  35.3859164  51.6330599  90.9411689  35.4772151  33.2093780  91.0751148
  35.7831028  32.3491143  90.7877063  36.2024756  33.8011400  90.8750142
  21.7696507  43.6124466  89.4632746  21.5720907  43.0193827  88.7383813
  21.2143171  43.3076676  90.1808685  29.7493231  43.5047573  91.5827339
  29.8041841  42.5521409  91.5069816  28.9384433  43.6607012  92.0668638
  30.8984425  47.4327696  82.8205622  30.4603855  46.7163555  82.3611260
  31.6394866  47.6603811  82.2590714  27.6885591  42.1224632  89.3417718
  26.8753456  42.4218803  89.7482910  28.1844585  41.7280321  90.0592200
  29.8394169  52.1182389  91.2751983  29.7970348  52.3443236  90.3460515
  30.7556868  51.8845764  91.4237784  33.2859803  42.5866457  98.1732612
  33.6409190  42.8137930  99.0327078  33.9331934  42.9184834  97.5509867
  39.0157540  45.7084893  88.8781941  38.8775438  45.8986489  87.9503130
  38.6593758  46.4704276  89.3349992  27.1799666  39.6942988  94.9578953
  27.8199045  39.5531747  94.2601916  26.3477196  39.4077501  94.5817555
  39.0426919  47.7761420  93.8893212  39.4763426  47.6836709  94.7376266
  39.7558500  47.7518920  93.2513228  27.9559970  48.9945418  91.0713945
  28.7500568  48.4995739  90.8696520  27.2451662  48.4663282  90.7081651
  32.7754814  51.3763514  95.4226313  32.8291836  51.9454450  96.1904029
  31.9069595  51.5465399  95.0580350  24.2642733  43.1388500  87.1473698
  23.3340321  43.0772956  87.3643660  24.3600205  42.6164453  86.3510339
  24.1828282  39.6643313  89.7351940  24.4435099  40.5788646  89.6261100
  25.0045454  39.1967756  89.8848553  25.6553207  41.0781070  96.9050764
  26.3276261  40.8698432  96.2563413  24.8282994  40.8803156  96.4655997
  39.9042469  47.8185120  96.4226098  40.0978359  48.7230931  96.6685373
  39.8043087  47.3592540  97.2564683  31.5578779  37.7043011  98.9216425
  30.9106695  38.4032961  98.8280902  32.3279795  38.1379155  99.2892673
  34.9657577  47.9691863 101.9966978  34.8143084  47.7402415 101.0797062
  34.9562257  48.9262465 102.0098323  31.7342914  45.5423776  96.9813245
  32.6634974  45.6934936  96.8082212  31.3133944  45.6307797  96.1261891
  30.5331246  49.5674440  94.7511782  30.3942331  49.1993225  95.6237721
  29.7445842  50.0822080  94.5795740  31.1279398  54.6683537  86.0937319
  31.3031153  54.1971580  86.9082942  30.4412186  55.2949303  86.3218580
  32.0836461  48.9456043  92.1400620  31.7486293  48.9056813  93.0358270
  31.5840406  48.2800759  91.6671031  26.0580705  44.3523673  97.6653201
  25.9200503  43.6203912  98.2664740  26.9685628  44.2632573  97.3837389
  35.0195652  46.2912077  82.4137680  34.4024823  45.5658906  82.3170733
  34.5512141  47.0521438  82.0704754  28.6863005  44.0643632  97.1536881
  29.3962624  43.4236825  97.1123500  28.6432314  44.3156527  98.0763062
  36.6749784  51.0010986 100.0743460  36.6162330  50.3170206  99.4074043
  37.0769302  51.7429976  99.6224086  25.6940483  57.8172900  92.8677179
  25.9337081  58.4491424  93.5456198  24.8509679  57.4660940  93.1542538
  26.8094198  40.5097502  81.5358984  25.9323665  40.3886303  81.1721231
  27.2851951  39.7183580  81.2837873  36.6767191  48.9650570  98.3057440
  35.7893970  48.6276492  98.4283839  37.2465742  48.2333601  98.5426205
  18.3296338  45.2974661  91.6300491  19.0167378  44.9836391  91.0421507
  18.1744467  46.2016026  91.3567743  23.1331061  40.1864858  96.0585515
  23.0489249  39.5790528  95.3235925  22.3113767  40.6773876  96.0595011
  30.2068345  53.6252022  95.2718683  30.1338516  54.4306994  95.7837988
  29.7645738  53.8243988  94.4466705  29.9958124  52.8623792  88.7821505
  29.2125646  53.4045472  88.8759729  30.6950870  53.3797772  89.1815746
  33.3054774  38.6718422  91.4255710  33.8023474  37.9188384  91.1056780
  32.5341756  38.7082738  90.8598919  41.1584532  44.3758787  93.0674002
  41.1474408  45.2583503  92.6967935  40.2901911  44.0230338  92.8728539
  32.6667028  53.5238856  97.4276842  33.3795000  54.1586321  97.3552743
  32.1757057  53.6202722  96.6116844  34.3884555  47.4290109  88.9994134
  33.4540834  47.5491571  88.8298838  34.5661224  46.5262576  88.7354143
  29.8889743  40.8135805  91.1527395  29.5187531  40.2606845  91.8408300
  30.3848836  40.2093938  90.6002395  37.7757107  43.2707428  89.5344168
  38.2417559  44.1035420  89.4604470  38.2264607  42.8052410  90.2389426
  27.7178942  51.2733300  98.2482413  28.4188401  51.9069783  98.4011807
  27.2474057  51.6148031  97.4878052  35.8433338  49.6151249  86.5330320
  36.1193182  49.5007844  87.4424194  34.9737836  49.2168734  86.4942493
  35.7473769  35.6388015  93.5735069  34.8336849  35.8692242  93.7417276
  36.1766871  35.7226459  94.4249101  35.5180228  43.8277907  96.0734963
  34.8651678  44.0753814  95.4187416  35.8960608  43.0142045  95.7397440
  32.4787402  53.8637600  90.1763133  32.6609796  53.0459256  90.6390886
  33.3020388  54.0805292  89.7388023  32.8129567  52.7905785  87.4378182
  33.3417334  52.2798240  86.8248344  33.0757787  52.4748316  88.3023715
  23.3146660  50.8069655  95.1813515  23.9000097  50.0613343  95.3141420
  23.1171498  51.1173611  96.0650179  26.1685315  53.8420902  90.1975958
  25.4995690  54.3267030  89.7139998  26.0298185  54.0890122  91.1119336
  17.9064315  43.3775255  93.9017958  17.9448414  42.8438846  94.6955077
  17.4004607  42.8510460  93.2828936  30.3090584  55.8764646  96.7958616
  30.8608892  56.0396267  97.5607701  30.6496777  56.4669083  96.1238641
  35.1601458  50.7025903 102.6507271  35.7041362  51.3155861 102.1562225
  34.5788303  51.2605481 103.1674284  21.5372892  42.1039357  86.9771890
  21.8326333  41.1950035  86.9238944  20.6360928  42.0827096  86.6552892
  33.4458971  53.8246621  93.7822298  33.3210110  53.0236361  93.2733244
  34.1038062  54.3192814  93.2936268  25.0667139  40.1795354  92.9599438
  24.3453725  40.7931321  92.8206912  25.8560395  40.7153118  92.8816084
  35.5093879  51.6255641  95.4101848  34.5624215  51.5060992  95.3380175
  35.8576652  50.7378139  95.4928110  23.2660734  39.7853455  87.1011215
  22.9373440  38.9050834  86.9186321  23.6200104  39.7301123  87.9887604
  32.5140313  51.4208357  91.6106201  32.3665275  50.4925065  91.7913771
  33.3393806  51.4428448  91.1263276  26.3802557  40.0726424  87.4686693
  26.7198629  40.6012346  86.7465301  26.8274677  40.4106831  88.2445259
  36.1174434  52.2436916  92.6971073  37.0420982  52.0379777  92.5595524
  35.9489738  51.9953317  93.6060415  29.0745998  38.4563475  96.9189761
  28.7342818  37.6571288  97.3210441  28.3685004  38.7565186  96.3466594
  29.7262470  35.5412788  95.3717084  30.5488539  35.0673266  95.2495974
  29.9700533  36.3203271  95.8715770  28.3670704  38.5701046  85.6679985
  29.0879067  38.9482299  85.1643702  27.7436008  39.2889923  85.7714963
  32.5101827  39.2746195  86.6038318  32.7265441  40.1570833  86.3027146
  32.0295894  38.8832408  85.8743960  27.2501048  42.2331908  93.1809062
  27.1045629  42.5472211  94.0733344  26.7726252  42.8516809  92.6279961
  29.1097431  39.2234456  93.2289952  29.0959000  38.3275550  92.8922250
  29.8269859  39.2305120  93.8628238  30.9623562  39.6571796  95.2743079
  30.7041340  40.5788867  95.2727410  30.4308602  39.2602231  95.9643544
  35.9069751  52.7622584  88.0533165  36.0806628  52.1969006  87.3007017
  36.3998642  53.5623478  87.8712655  21.7246710  44.7737253  96.1196724
  21.1800179  45.5497061  96.2516998  22.6026060  45.1208057  95.9615845
  28.5134327  38.1048836  88.4977522  28.6350238  37.1765483  88.6968410
  28.2236369  38.1187522  87.5855838  31.3825518  35.7903747  91.6344242
  31.4047214  35.8543080  90.6796221  31.7993577  34.9508256  91.8284748
  41.7609142  45.5259006  89.6723465  42.2040288  44.7766332  89.2742588
  40.8835652  45.5169143  89.2897196  36.8944923  52.0789348  85.1530063
  37.5895828  52.6996041  85.3717378  37.2368073  51.2284699  85.4282441
  38.7936346  49.5289053  86.6817394  39.3187670  49.8676326  85.9566714
  38.7058699  48.5936069  86.4980528  30.4556395  53.4423127  98.8107270
  30.7643521  53.1972274  99.6829970  31.2531877  53.6469766  98.3226141
  30.4777007  55.5961037  91.0412647  30.0381997  55.1037415  91.7345504
  31.2285124  55.0534004  90.8004722  22.9569346  51.7872578  91.0437275
  23.7827366  51.4876349  90.6635919  22.6063398  51.0180200  91.4927064
  27.9250879  51.1399046  93.1134949  27.3030888  50.4769751  92.8137177
  28.5955746  51.1660178  92.4308596  21.1577951  49.7058904  92.0026209
  20.3209859  49.2781078  91.8210210  21.1301596  49.8991347  92.9397000
  38.4830252  50.1621957 101.9868592  37.6925796  50.1446096 101.4473091
  38.2463607  50.7010251 102.7417628  38.6028127  47.0114423  99.3001320
  38.6526132  46.8464431 100.2416843  38.4942051  46.1441683  98.9099201
  27.4864386  49.6902969  86.5893409  27.6352506  50.3738434  85.9360082
  28.2930830  49.6708059  87.1042865  35.8931890  42.9945352 100.6160627
  36.7941753  42.8551816 100.3244625  35.9679864  43.1599806 101.5558804
  30.2274695  40.3712206  99.4613813  29.3578005  40.6645772  99.1896402
  30.4634175  40.9552651 100.1821077  40.1046324  49.4311365  99.5443342
  39.8131133  49.7941346 100.3806803  39.4918456  48.7178373  99.3656674
  41.3042007  46.9964245  92.0645912  42.1388898  47.4354049  92.2283472
  41.4401135  46.5202898  91.2454158  38.3533512  44.5543980  98.0123400
  38.8287634  44.7471626  97.2042251  37.4299078  44.6103165  97.7666784
  25.2417019  45.7168147  87.5954478  24.9963061  44.8130477  87.7934688
  25.4112934  45.7185297  86.6533956  32.9313729  36.5891823  96.9779234
  33.4495673  37.3252850  96.6525722  32.5768862  36.8955816  97.8125993
  24.5112667  41.4496504  85.0940640  23.8181912  41.5240859  84.4380676
  24.2664419  40.6856848  85.6162157  33.1826323  33.0092106  92.4980130
  33.4628077  32.3415295  93.1240557  33.9676930  33.2021201  91.9854794
  30.9859792  52.1851100  84.0605157  30.4133759  52.8041287  83.6075628
  31.5592585  52.7350461  84.5945079  37.0535181  41.4309740  96.2451705
  38.0052604  41.5307837  96.2663929  36.8838632  40.6388008  96.7549790
  35.0749561  38.5165323  96.4311106  34.4799493  38.7970336  95.7357595
  34.7899258  39.0059224  97.2027847  34.2057051  52.4688250  85.1913739
  35.1387725  52.4033811  85.3946614  34.1180264  53.3044517  84.7328272
  36.8345068  51.7854120  82.1517686  36.7558700  51.4513984  83.0453444
  37.6554735  52.2775888  82.1509159  39.5323259  44.6515859  95.3594005
  39.4999579  43.7131860  95.5453689  40.1423883  44.7299896  94.6259830
  31.3706590  43.5211912  81.4021209  32.3165695  43.3918120  81.4709627
  30.9920835  42.7826574  81.8790637  39.6817748  41.4426903  95.4052288
  39.1656796  40.6585359  95.2182217  40.5657696  41.1145619  95.5698808
  37.3428475  35.1867918  91.3648101  37.1453296  34.8783007  92.2491433
  37.9528180  35.9129557  91.4946031  45.3499809  45.7131866  94.5000042
  46.0803198  45.4517154  95.0607745  44.7406755  44.9760588  94.5402110
  43.4315106  43.8539729  95.0974493  42.7048270  43.7195694  94.4890985
  43.0162393  44.1616557  95.9031211  31.2545283  47.5729658 102.8621866
  32.1748292  47.7508258 103.0561913  31.2194866  46.6285704 102.7101565
  29.5549507  41.4461889  81.3376094  28.6480963  41.1495001  81.4138808
  29.8325488  41.1491707  80.4710381  20.4727448  42.7668252  91.7875141
  20.1530232  41.9133560  91.4949515  19.9260876  42.9816830  92.5433108
  24.2507355  45.4830693  95.5044647  24.4693365  46.4147801  95.5232681
  24.6633129  45.1238668  96.2899451  31.1711573  35.9898778  87.4920336
  30.3612301  35.6445863  87.8675582  31.8595990  35.6806322  88.0807947
  33.1002121  35.0676825  89.1144632  33.6533160  35.4872279  89.7734655
  33.3372208  34.1412573  89.1567588  28.3248292  38.3048824  81.4788074
  29.1867456  38.6303722  81.7383891  28.5098636  37.5180320  80.9661139
  20.3415708  46.3871164  93.7568262  19.6479179  45.9725116  93.2438217
  21.0888699  46.4291700  93.1601681  36.4780928  37.1777350  88.6223297
  35.8979597  37.8362154  88.2401349  36.2116861  36.3554695  88.2110714
  34.9284495  36.5782408  90.8244617  35.4284273  36.6898943  90.0158936
  35.5720103  36.2743461  91.4645425  22.2552450  46.3189417  91.6334277
  22.2323138  46.4177105  90.6816160  22.5653087  47.1654568  91.9551443
  24.9139828  48.3765572  95.7480892  25.8683082  48.3449515  95.6810823
  24.7152352  47.9156196  96.5631118  25.5039210  46.9466689  98.3151689
  26.3232099  47.4410767  98.3386527  25.7776018  46.0298657  98.2869257
  35.2605806  39.3377441  87.6779645  34.3731661  39.6227091  87.4599840
  35.6759795  39.1771204  86.8306922  38.6120343  39.3623962  91.3933984
  39.3880733  39.8520414  91.6658601  37.8868477  39.7882016  91.8505854
  41.0492901  40.0751581  92.4507925  41.6437392  39.8347317  91.7401233
  41.1219485  39.3558712  93.0781461  23.2690057  53.9185192  92.7651090
  23.1344525  53.1585593  92.1989088  22.8522119  54.6426092  92.2979878
  34.4049020  49.1022115  81.7727665  35.1084870  49.3072118  82.3885320
  33.6811669  49.6698877  82.0376748  35.2346830  44.8531977  87.8929935
  35.1782032  45.3100528  87.0537567  35.7875173  44.0922661  87.7152778
  39.0451636  40.6421709  88.7180054  38.7888570  40.2418344  89.5488262
  38.4204504  41.3565503  88.5930194  43.3563974  43.3817782  91.2251346
  42.7963532  43.4510971  91.9982908  42.7507477  43.2058766  90.5050842
  26.4259183  54.8154509  92.9769532  26.3091567  55.7599941  92.8748222
  25.6051629  54.5128071  93.3655331  36.3135717  49.5404645  83.8226125
  37.1481321  49.1085843  83.6403600  36.1520060  49.3686658  84.7503019
  35.9681609  46.0436758  85.1882464  35.9130413  45.8781029  84.2470908
  35.3427665  46.7512791  85.3444654  33.2827517  48.3485670 104.5136027
  34.1518676  48.5226322 104.1522662  32.8034268  49.1680087 104.3911756
  29.2777735  35.5444867  84.7667783  29.2656405  36.4886707  84.9236053
  30.1701157  35.3615012  84.4727244  27.4513697  55.4682771  96.1925461
  28.3540944  55.5006381  96.5091956  27.2251067  54.5383222  96.2071796
  29.2067299  54.2213757  92.8535539  28.2562930  54.2215619  92.7399911
  29.5099785  53.4746492  92.3371574  33.0929854  32.1387644  89.0213719
  32.3262250  31.5846130  89.1670402  33.5040559  32.2109512  89.8827871
  44.9419992  60.0574296  93.9181302  45.5798402  59.9381043  93.2144642
  44.8240835  61.0055140  93.9769254  41.7509699  60.0101724  93.8542826
  41.4128210  59.8942789  92.9663361  42.6199467  59.6092889  93.8343832
  37.6096514  61.8637200  89.8439717  37.0461379  61.7727137  89.0756005
  37.4948909  61.0437105  90.3242210  42.2329482  61.1636576  99.8129032
  42.2218122  60.7689374  98.9409535  42.3950121  60.4302648 100.4062803
  35.1560946  63.3588392  92.6823938  35.9482238  63.0179217  92.2670237
  35.3957596  63.4683367  93.6026091  43.1896073  65.5308168  85.1554182
  42.5384053  66.1162248  84.7688196  43.9840436  66.0614363  85.2149220
  37.1151700  62.6197305  85.5541316  37.8882576  62.0726292  85.4154192
  37.4677099  63.4841554  85.7655778  38.9536743  63.9473687  98.7608216
  38.6626609  64.8519318  98.6454882  39.5893727  63.9890215  99.4752285
  39.8792950  61.3250536  95.3509575  40.4756522  61.1006558  94.6366538
  39.9367921  60.5835281  95.9535023  39.4517978  58.7789971  83.1859766
  39.7043499  58.2571493  82.4243229  38.5142537  58.6156117  83.2886450
  44.4961261  57.7825750  90.9934510  45.2824350  57.3645173  90.6424927
  44.7599965  58.6871842  91.1616158  44.6671338  63.2198600  85.6923166
  44.0317171  63.2933226  86.4044071  44.3368745  63.8092199  85.0142246
  49.8969688  57.7200983  91.8967488  50.6294860  57.1500200  92.1305318
  49.1409044  57.3322583  92.3373994  39.1714267  60.6818077  85.3884141
  39.0550525  60.0062981  86.0565226  39.2816527  60.1950451  84.5716294
  41.5145808  60.1428224  89.0930831  41.1504015  59.6158845  89.8043752
  42.3712924  59.7526693  88.9197316  47.4195108  51.4322557  96.3562097
  47.0878433  52.3017968  96.1323312  46.8240722  51.1158841  97.0356127
  41.1551295  55.1718124  84.0892179  41.3225697  56.0398360  84.4562650
  40.9648464  55.3345406  83.1653468  43.9126628  63.6335103  95.7558009
  43.6127351  64.5360142  95.6473817  43.5677687  63.3667286  96.6079162
  37.3639109  60.0848900  91.7894714  36.4389606  59.9525114  91.9972406
  37.6123523  60.8643119  92.2864656  47.3123772  56.1517643  93.4355447
  46.4040649  56.0833052  93.1414208  47.2611367  56.6289588  94.2637272
  41.1340516  57.6275782  85.0738846  41.0140141  58.0732832  85.9124326
  40.4393104  57.9761099  84.5152384  34.7247920  59.7282173  92.6238503
  34.8540302  59.9816652  93.5377915  34.0445372  60.3209881  92.3043158
  38.8947408  70.3979423  88.7228977  38.8171437  71.3487248  88.8017458
  38.2909051  70.0525296  89.3803903  41.3864637  57.5707289 101.3790344
  40.6097971  58.1301209 101.3693209  42.0255200  58.0564072 101.9005214
  49.1785418  54.3534082  95.2133321  48.5359798  54.6466615  94.5673115
  48.6740347  54.2387002  96.0186517  46.8325582  58.0997255  85.9019180
  47.7443438  58.3324641  85.7266878  46.3235229  58.6834299  85.3394259
  39.6411010  60.3792742 100.9408311  40.3825694  60.9177786 100.6643135
  38.9347995  61.0059031 101.0979863  45.1166349  62.5221883  99.5380473
  45.5249705  62.0804293  98.7935105  44.3943611  61.9474510  99.7914665
  41.4697419  57.4594489  96.9114030  42.3158615  57.8833903  97.0548679
  41.4096057  56.8028114  97.6052593  45.4395164  63.0823073  93.2932761
  44.8104026  63.2468787  92.5908829  45.0520826  63.4964683  94.0643725
  49.3184396  64.0177511  90.6477125  48.6335434  64.3976412  90.0974159
  49.4028245  64.6272838  91.3809073  44.6196865  55.1198858  98.5695203
  44.3757797  55.8740918  98.0329479  44.8956795  55.4984205  99.4042450
  46.5735328  61.6637470  97.2472469  46.7852223  62.3069230  96.5706850
  46.5265076  60.8299787  96.7794399  44.1761556  54.2755291  94.1509041
  43.3146036  54.5736544  94.4425778  44.2023991  54.4925690  93.2190074
  40.9923126  62.8197481  90.5582847  41.4561471  63.0985184  89.7687469
  40.7279924  61.9180926  90.3755937  37.8847207  62.3668963  93.4962610
  38.4548564  62.7956231  92.8580094  38.4755319  62.0851548  94.1946795
  39.9292012  58.9420634  87.3672412  40.6316055  59.3941677  87.8346338
  39.5972640  58.3004452  87.9952305  38.3772373  57.5332390 101.7423621
  37.7471034  58.2148671 101.9759018  38.2708461  57.4215472 100.7976759
  33.6717346  57.2004186  92.6689545  32.8816400  57.4561715  92.1929656
  34.1628593  58.0152524  92.7741586  47.6881155  64.5409425  95.4194826
  48.5098599  64.1389613  95.1377508  47.6843558  64.4377660  96.3710942
  35.6232091  57.5648766  89.6273022  34.8263255  57.6767460  90.1456518
  35.3957683  57.9035418  88.7613912  41.4537759  64.0893469  97.5755537
  41.5182191  64.5513876  98.4113708  40.7448683  63.4590834  97.7037846
  31.9555049  57.4534677  95.1004536  32.2063087  58.3381687  95.3662112
  32.4914597  57.2739278  94.3279628  55.7787149  60.8848174  91.7679798
  55.0250857  60.3155572  91.6123802  55.9134690  60.8510838  92.7150432
  41.1685777  65.7561576  87.4434517  41.0331451  66.6013112  87.8719365
  41.7095589  65.9580854  86.6800451  37.6553116  51.8353156 104.1048872
  37.2620062  51.2819355 104.7796516  38.4719257  52.1463735 104.4955390
  34.6215174  63.2737014  88.0162442  35.1339695  64.0680265  88.1668007
  35.2737887  62.5763305  87.9496043  36.4310059  66.3902771  90.0985195
  36.6076687  67.3120735  89.9106179  37.2266892  66.0761190  90.5279575
  40.5721077  53.2511035 101.6969129  41.3130791  53.8518188 101.6173591
  40.8039000  52.5088673 101.1387171  35.7162415  58.4367402  99.9747358
  35.6015930  57.5352660 100.2754457  34.8606933  58.6831099  99.6232175
  42.7954253  66.3785143 101.5734859  42.3518107  65.5921521 101.2555763
  43.4571467  66.5664293 100.9078750  37.5541374  67.9080944  96.0995538
  38.1048799  67.7798008  95.3272531  36.7152850  68.2075833  95.7490430
  44.8935491  66.6587943  99.6016260  44.8753966  67.4796824  99.1096529
  45.8155411  66.5342018  99.8266401  41.3508545  64.1732072 100.4439769
  41.8836882  63.4120360 100.2139077  40.8222626  63.8805724 101.1863923
  44.5178240  49.2792138  95.9733410  44.1742510  50.1693780  95.8972521
  44.8857203  49.0893796  95.1102995  32.5864091  61.6025669  88.7922013
  33.4239313  62.0122677  88.5755720  32.7642358  60.6625111  88.7622206
  44.4828523  59.2700749  84.4805845  43.9675146  60.0405354  84.7194233
  44.2105831  58.5965885  85.1038907  42.0675634  54.1150450  89.5391084
  41.2117230  53.7257300  89.3596723  42.4802586  54.1942411  88.6790869
  43.5974781  51.6496793  93.9382644  43.0939576  51.6126928  93.1250449
  43.8905387  52.5589536  93.9979300  39.8417666  51.7335523  92.9448825
  40.7070663  51.5378332  92.5854715  39.9095175  51.5045875  93.8718182
  49.4562797  62.0233104  86.4159019  48.6792240  61.6844263  85.9714181
  50.1354278  62.0285727  85.7413984  44.2714826  57.1427841  86.3065627
  43.9664962  57.4573991  87.1575770  45.2245268  57.2209261  86.3492960
  42.7161258  63.3018065  87.9558581  42.1882619  62.5670824  87.6431818
  42.2148761  64.0792741  87.7098549  47.6954104  61.4967085  93.0725627
  47.0377778  62.1866347  93.1605756  48.4994503  61.8863517  93.4159613
  37.4479985  53.9637731  90.3165192  38.0223737  53.7412912  89.5838385
  38.0350968  54.0326425  91.0693793  46.5059563  59.8511458  91.1229569
  47.0191444  60.4841450  91.6251278  47.1560787  59.2512653  90.7572929
  37.7749573  55.9942192  84.3361077  36.9386885  56.3316879  84.6570352
  37.6354342  55.8591172  83.3988214  39.7502653  50.8378980  89.0440262
  39.0967066  50.5227997  88.4196876  39.7083127  50.2154720  89.7700085
  40.8613858  61.1198275  80.9593554  39.9540920  60.8887528  81.1584703
  41.3584890  60.3235894  81.1467535  43.7681937  69.8295782  83.8790240
  43.0943636  70.1327479  84.4875198  44.1547759  70.6324862  83.5295697
  42.9840394  57.3260913  93.3687909  42.0662955  57.5475860  93.2109597
  43.4000537  57.4007224  92.5099617  43.7675441  58.7252329  88.4990589
  44.5147260  59.2373726  88.1897712  44.0367031  58.4036382  89.3594983
  42.0402091  61.2210870  85.4817544  41.1313311  60.9369903  85.5790014
  42.0697175  61.6409948  84.6220851  47.2721359  64.8317459  89.2508711
  46.8183686  63.9908369  89.3073902  46.6415326  65.4678858  89.5883491
  46.2154278  55.7609445  90.4809379  45.4777035  55.2486832  90.8119621
  46.4681052  55.3209827  89.6692656  45.7154298  66.6693956  90.1858529
  46.0077273  67.2299013  89.4670895  46.2252919  66.9622517  90.9411689
  46.3165906  48.5385697  91.0751148  46.6224783  47.6783061  90.7877063
  47.0418511  49.1303318  90.8750142  32.6090262  58.9416384  89.4632746
  32.4114662  58.3485745  88.7383813  32.0536926  58.6368594  90.1808685
  40.5886986  58.8339490  91.5827339  40.6435595  57.8813327  91.5069816
  39.7778188  58.9898929  92.0668638  41.7378179  62.7619613  82.8205622
  41.2997609  62.0455472  82.3611260  42.4788620  62.9895728  82.2590714
  38.5279345  57.4516550  89.3417718  37.7147211  57.7510721  89.7482910
  39.0238340  57.0572239  90.0592200  40.6787923  67.4474307  91.2751983
  40.6364102  67.6735153  90.3460515  41.5950622  67.2137682  91.4237784
  44.1253557  57.9158375  98.1732612  44.4802945  58.1429848  99.0327078
  44.7725688  58.2476751  97.5509867  49.8551294  61.0376810  88.8781941
  49.7169193  61.2278406  87.9503130  49.4987513  61.7996193  89.3349992
  38.0193420  55.0234906  94.9578953  38.6592800  54.8823665  94.2601916
  37.1870951  54.7369419  94.5817555  49.8820674  63.1053338  93.8893212
  50.3157180  63.0128627  94.7376266  50.5952254  63.0810838  93.2513228
  38.7953724  64.3237336  91.0713945  39.5894323  63.8287656  90.8696520
  38.0845416  63.7955199  90.7081651  43.6148569  66.7055432  95.4226313
  43.6685591  67.2746368  96.1904029  42.7463350  66.8757317  95.0580350
  35.1036488  58.4680418  87.1473698  34.1734076  58.4064873  87.3643660
  35.1993960  57.9456371  86.3510339  35.0222037  54.9935231  89.7351940
  35.2828854  55.9080564  89.6261100  35.8439209  54.5259673  89.8848553
  36.4946962  56.4072988  96.9050764  37.1670015  56.1990350  96.2563413
  35.6676748  56.2095074  96.4655997  50.7436223  63.1477038  96.4226098
  50.9372113  64.0522849  96.6685373  50.6436841  62.6884457  97.2564683
  42.3972534  53.0334929  98.9216425  41.7500449  53.7324878  98.8280902
  43.1673549  53.4671073  99.2892673  45.8051332  63.2983781 101.9966978
  45.6536838  63.0694333 101.0797062  45.7956011  64.2554382 102.0098323
  42.5736668  60.8715694  96.9813245  43.5028728  61.0226853  96.8082212
  42.1527698  60.9599714  96.1261891  41.3725000  64.8966358  94.7511782
  41.2336086  64.5285142  95.6237721  40.5839596  65.4113997  94.5795740
  41.9673152  69.9975455  86.0937319  42.1424908  69.5263498  86.9082942
  41.2805940  70.6241221  86.3218580  42.9230215  64.2747961  92.1400620
  42.5880048  64.2348731  93.0358270  42.4234161  63.6092677  91.6671031
  36.8974459  59.6815591  97.6653201  36.7594257  58.9495830  98.2664740
  37.8079383  59.5924491  97.3837389  45.8589407  61.6203995  82.4137680
  45.2418578  60.8950823  82.3170733  45.3905895  62.3813355  82.0704754
  39.5256760  59.3935550  97.1536881  40.2356378  58.7528742  97.1123500
  39.4826068  59.6448445  98.0763062  47.5143539  66.3302903 100.0743460
  47.4556085  65.6462124  99.4074043  47.9163057  67.0721893  99.6224086
  38.2385694  56.3800768  98.9732521  37.7023051  55.9291506  99.6254117
  37.6502402  56.5146677  98.2302985  36.5334237  73.1464817  92.8677179
  36.7730836  73.7783341  93.5456198  35.6903434  72.7952857  93.1542538
  37.6487953  55.8389419  81.5358984  36.7717419  55.7178220  81.1721231
  38.1245706  55.0475498  81.2837873  47.5160946  64.2942487  98.3057440
  46.6287725  63.9568409  98.4283839  48.0859497  63.5625519  98.5426205
  29.1690093  60.6266579  91.6300491  29.8561133  60.3128309  91.0421507
  29.0138222  61.5307944  91.3567743  33.9724815  55.5156776  96.0585515
  33.8883004  54.9082445  95.3235925  33.1507521  56.0065794  96.0595011
  41.0462099  68.9543940  95.2718683  40.9732271  69.7598911  95.7837988
  40.6039492  69.1535906  94.4466705  40.8351879  68.1915710  88.7821505
  40.0519401  68.7337390  88.8759729  41.5344624  68.7089689  89.1815746
  44.1448529  54.0010339  91.4255710  44.6417228  53.2480302  91.1056780
  43.3735510  54.0374656  90.8598919  51.9978286  59.7050705  93.0674002
  51.9868163  60.5875420  92.6967935  51.1295666  59.3522256  92.8728539
  43.5060783  68.8530774  97.4276842  44.2188755  69.4878239  97.3552743
  43.0150811  68.9494640  96.6116844  45.2278310  62.7582026  88.9994134
  44.2934588  62.8783489  88.8298838  45.4054978  61.8554493  88.7354143
  40.7283498  56.1427722  91.1527395  40.3581285  55.5898763  91.8408300
  41.2242590  55.5385856  90.6002395  48.6150861  58.5999346  89.5344168
  49.0811313  59.4327337  89.4604470  49.0658361  58.1344327  90.2389426
  38.5572696  66.6025217  98.2482413  39.2582156  67.2361700  98.4011807
  38.0867811  66.9439949  97.4878052  46.6827092  64.9443167  86.5330320
  46.9586936  64.8299762  87.4424194  45.8131591  64.5460652  86.4942493
  46.5867524  50.9679933  93.5735069  45.6730604  51.1984160  93.7417276
  47.0160625  51.0518377  94.4249101  46.3573982  59.1569825  96.0734963
  45.7045432  59.4045732  95.4187416  46.7354362  58.3433963  95.7397440
  43.3181156  69.1929518  90.1763133  43.5003551  68.3751174  90.6390886
  44.1414142  69.4097210  89.7388023  43.6523322  68.1197703  87.4378182
  44.1811088  67.6090158  86.8248344  43.9151541  67.8040233  88.3023715
  42.4061555  59.8989636 102.5601000  41.7302192  59.7983765 103.2303375
  43.2289189  59.7428849 103.0236997  34.1540414  66.1361572  95.1813515
  34.7393851  65.3905260  95.3141420  33.9565253  66.4465529  96.0650179
  37.0079070  69.1712820  90.1975958  36.3389445  69.6558947  89.7139998
  36.8691939  69.4182040  91.1119336  28.7458069  58.7067172  93.9017958
  28.7842169  58.1730763  94.6955077  28.2398362  58.1802378  93.2828936
  41.1484338  71.2056563  96.7958616  41.7002646  71.3688185  97.5607701
  41.4890532  71.7961001  96.1238641  36.1248831  53.5531713  97.3980501
  36.1890158  54.4146544  96.9857898  36.0615952  52.9405715  96.6652859
  35.6001104  55.6254846 101.0453535  36.2273143  55.2431923 101.6591059
  34.7429023  55.4069047 101.4109228  45.9995212  66.0317821 102.6507271
  46.5435116  66.6447779 102.1562225  45.4182057  66.5897399 103.1674284
  32.3766647  57.4331275  86.9771890  32.6720088  56.5241953  86.9238944
  31.4754682  57.4119014  86.6552892  44.2852725  69.1538539  93.7822298
  44.1603865  68.3528279  93.2733244  44.9431817  69.6484732  93.2936268
  35.9060894  55.5087271  92.9599438  35.1847479  56.1223239  92.8206912
  36.6954149  56.0445036  92.8816084  46.3487634  66.9547559  95.4101848
  45.4017969  66.8352910  95.3380175  46.6970407  66.0670057  95.4928110
  38.7087207  52.8441698  99.2340090  39.2321609  53.0903994  99.9966400
  38.4899540  53.6761733  98.8143228  34.1054488  55.1145372  87.1011215
  33.7767194  54.2342751  86.9186321  34.4593859  55.0593041  87.9887604
  43.3534067  66.7500275  91.6106201  43.2059030  65.8216982  91.7913771
  44.1787561  66.7720366  91.1263276  37.2196311  55.4018342  87.4686693
  37.5592384  55.9304263  86.7465301  37.6668432  55.7398748  88.2445259
  46.9568189  67.5728834  92.6971073  47.8814736  67.3671695  92.5595524
  46.7883492  67.3245235  93.6060415  39.9139752  53.7855393  96.9189761
  39.5736573  52.9863206  97.3210441  39.2078758  54.0857104  96.3466594
  40.5656224  50.8704705  95.3717084  41.3882293  50.3965183  95.2495974
  40.8094288  51.6495189  95.8715770  39.2064459  53.8992964  85.6679985
  39.9272821  54.2774216  85.1643702  38.5829763  54.6181841  85.7714963
  43.3495581  54.6038113  86.6038318  43.5659196  55.4862751  86.3027146
  42.8689649  54.2124326  85.8743960  38.0894803  57.5623826  93.1809062
  37.9439384  57.8764129  94.0733344  37.6120006  58.1808726  92.6279961
  39.9491186  54.5526374  93.2289952  39.9352754  53.6567467  92.8922250
  40.6663614  54.5597038  93.8628238  41.8017316  54.9863714  95.2743079
  41.5435094  55.9080785  95.2727410  41.2702357  54.5894149  95.9643544
  46.7463505  68.0914501  88.0533165  46.9200383  67.5260924  87.3007017
  47.2392396  68.8915396  87.8712655  32.5640465  60.1029170  96.1196724
  32.0193933  60.8788978  96.2516998  33.4419815  60.4499975  95.9615845
  39.3528082  53.4340754  88.4977522  39.4743993  52.5057400  88.6968410
  39.0630124  53.4479440  87.5855838  42.2219272  51.1195665  91.6344242
  42.2440969  51.1834998  90.6796221  42.6387331  50.2800173  91.8284748
  52.6002896  60.8550924  89.6723465  53.0434042  60.1058249  89.2742588
  51.7229407  60.8461061  89.2897196  47.7338678  67.4081266  85.1530063
  48.4289582  68.0287958  85.3717378  48.0761828  66.5576617  85.4282441
  33.3506487  59.2299067  99.0126880  32.6088223  59.3781702  99.5991511
  33.0299231  59.4907332  98.1493630  49.6330101  64.8580971  86.6817394
  50.1581425  65.1968244  85.9566714  49.5452453  63.9227986  86.4980528
  41.2950149  68.7715045  98.8107270  41.6037276  68.5264192  99.6829970
  42.0925631  68.9761683  98.3226141  41.3170762  70.9252954  91.0412647
  40.8775752  70.4329333  91.7345504  42.0678878  70.3825922  90.8004722
  33.7963100  67.1164495  91.0437275  34.6221120  66.8168267  90.6635919
  33.4457152  66.3472118  91.4927064  38.7644634  66.4690964  93.1134949
  38.1424643  65.8061669  92.8137177  39.4349501  66.4952095  92.4308596
  31.9971706  65.0350822  92.0026209  31.1603614  64.6072996  91.8210210
  31.9695351  65.2283265  92.9397000  38.8369161  54.9472752 102.7067455
  38.8857317  55.8234874 102.3245224  39.3791675  54.4050145 102.1339098
  49.3224007  65.4913875 101.9868592  48.5319551  65.4738014 101.4473091
  49.0857361  66.0302168 102.7417628  49.4421882  62.3406341  99.3001320
  49.4919887  62.1756349 100.2416843  49.3335805  61.4733600  98.9099201
  38.3258141  65.0194887  86.5893409  38.4746261  65.7030351  85.9360082
  39.1324584  64.9999977  87.1042865  46.7325644  58.3237269 100.6160627
  47.6335507  58.1843734 100.3244625  46.8073619  58.4891724 101.5558804
  41.0668450  55.7004124  99.4613813  40.1971759  55.9937690  99.1896402
  41.3027930  56.2844569 100.1821077  50.9440079  64.7603283  99.5443342
  50.6524887  65.1233263 100.3806803  50.3312210  64.0470291  99.3656674
  52.1435761  62.3256162  92.0645912  52.9782652  62.7645967  92.2283472
  52.2794890  61.8494816  91.2454158  49.1927267  59.8835897  98.0123400
  49.6681389  60.0763544  97.2042251  48.2692832  59.9395083  97.7666784
  36.0810774  61.0460064  87.5954478  35.8356815  60.1422394  87.7934688
  36.2506688  61.0477215  86.6533956  43.7707483  51.9183741  96.9779234
  44.2889427  52.6544768  96.6525722  43.4162616  52.2247734  97.8125993
  35.3506421  56.7788422  85.0940640  34.6575666  56.8532777  84.4380676
  35.1058173  56.0148766  85.6162157  44.0220078  48.3384023  92.4980130
  44.3021831  47.6707212  93.1240557  44.8070685  48.5313119  91.9854794
  41.8253546  67.5143017  84.0605157  41.2527513  68.1333204  83.6075628
  42.3986340  68.0642379  84.5945079  47.8928936  56.7601657  96.2451705
  48.8446359  56.8599755  96.2663929  47.7232386  55.9679926  96.7549790
  45.9143315  53.8457241  96.4311106  45.3193248  54.1262253  95.7357595
  45.6293012  54.3351142  97.2027847  45.0450806  67.7980167  85.1913739
  45.9781479  67.7325729  85.3946614  44.9574019  68.6336434  84.7328272
  47.6738823  67.1146038  82.1517686  47.5952454  66.7805901  83.0453444
  48.4948489  67.6067806  82.1509159  50.3717014  59.9807777  95.3594005
  50.3393334  59.0423778  95.5453689  50.9817637  60.0591814  94.6259830
  42.2100345  58.8503830  81.4021209  43.1559449  58.7210038  81.4709627
  41.8314590  58.1118492  81.8790637  50.5211502  56.7718821  95.4052288
  50.0050551  55.9877277  95.2182217  51.4051451  56.4437537  95.5698808
  48.1822229  50.5159836  91.3648101  47.9847050  50.2074924  92.2491433
  48.7921935  51.2421475  91.4946031  56.1893564  61.0423784  94.5000042
  56.9196952  60.7809072  95.0607745  55.5800509  60.3052506  94.5402110
  54.2708861  59.1831647  95.0974493  53.5442024  59.0487611  94.4890985
  53.8556148  59.4908475  95.9031211  42.0939037  62.9021576 102.8621866
  43.0142047  63.0800175 103.0561913  42.0588620  61.9577622 102.7101565
  40.3943262  56.7753806  81.3376094  39.4874717  56.4786919  81.4138808
  40.6719243  56.4783625  80.4710381  31.3121202  58.0960170  91.7875141
  30.9923986  57.2425478  91.4949515  30.7654630  58.3108748  92.5433108
  35.0901110  60.8122611  95.5044647  35.3087119  61.7439719  95.5232681
  35.5026884  60.4530585  96.2899451  42.0105327  51.3190696  87.4920336
  41.2006056  50.9737781  87.8675582  42.6989744  51.0098240  88.0807947
  43.9395876  50.3968743  89.1144632  44.4926914  50.8164196  89.7734655
  44.1765962  49.4704491  89.1567588  39.9628975  56.3855817 104.8947396
  39.8625702  57.3350174 104.8259487  39.7450517  56.0574056 104.0223466
  39.1642046  53.6340742  81.4788074  40.0261210  53.9595640  81.7383891
  39.3492391  52.8472238  80.9661139  31.1809462  61.7163081  93.7568262
  30.4872934  61.3017034  93.2438217  31.9282453  61.7583618  93.1601681
  47.3174683  52.5069268  88.6223297  46.7373352  53.1654072  88.2401349
  47.0510616  51.6846613  88.2110714  45.7678249  51.9074326  90.8244617
  46.2678028  52.0190860  90.0158936  46.4113857  51.6035379  91.4645425
  39.8260245  59.8152955 103.7112458  39.3427327  60.6153316 103.9176347
  39.9121184  59.8260900 102.7579902  33.0946205  61.6481335  91.6334277
  33.0716893  61.7469022  90.6816160  33.4046841  62.4946486  91.9551443
  35.7533583  63.7057490  95.7480892  36.7076836  63.6741432  95.6810823
  35.5546106  63.2448114  96.5631118  36.3432965  62.2758606  98.3151689
  37.1625854  62.7702685  98.3386527  36.6169772  61.3590574  98.2869257
  46.0999561  54.6669359  87.6779645  45.2125416  54.9519009  87.4599840
  46.5153550  54.5063122  86.8306922  49.4514097  54.6915879  91.3933984
  50.2274487  55.1812332  91.6658601  48.7262231  55.1173934  91.8505854
  51.8886656  55.4043499  92.4507925  52.4831146  55.1639235  91.7401233
  51.9613239  54.6850629  93.0781461  34.1083811  69.2477110  92.7651090
  33.9738279  68.4877511  92.1989088  33.6915874  69.9718009  92.2979878
  45.2442774  64.4314033  81.7727665  45.9478624  64.6364036  82.3885320
  44.5205423  64.9990795  82.0376748  46.0740585  60.1823894  87.8929935
  46.0175786  60.6392446  87.0537567  46.6268927  59.4214579  87.7152778
  49.8845391  55.9713626  88.7180054  49.6282325  55.5710262  89.5488262
  49.2598259  56.6857420  88.5930194  54.1957728  58.7109700  91.2251346
  53.6357286  58.7802889  91.9982908  53.5901232  58.5350684  90.5050842
  37.2652937  70.1446427  92.9769532  37.1485321  71.0891859  92.8748222
  36.4445383  69.8419988  93.3655331  47.1529472  64.8696562  83.8226125
  47.9875076  64.4377761  83.6403600  46.9913815  64.6978576  84.7503019
  46.8075364  61.3728676  85.1882464  46.7524168  61.2072947  84.2470908
  46.1821419  62.0804709  85.3444654  31.5967879  56.6096740  99.0143886
  32.2426743  56.0995694  99.5031112  31.3885030  57.3465422  99.5887312
  44.1221271  63.6777588 104.5136027  44.9912431  63.8518240 104.1522662
  43.6428023  64.4972004 104.3911756  40.1171489  50.8736785  84.7667783
  40.1050159  51.8178625  84.9236053  41.0094911  50.6906930  84.4727244
  38.2907451  70.7974689  96.1925461  39.1934698  70.8298299  96.5091956
  38.0644821  69.8675139  96.2071796  40.0461053  69.5505675  92.8535539
  39.0956684  69.5507537  92.7399911  40.3493539  68.8038410  92.3371574
  43.9323609  47.4679561  89.0213719  43.1656005  46.9138048  89.1670402
  44.3434314  47.5401430  89.8827871  35.9365370  53.7564357 103.1118901
  36.7996831  53.4001162 103.3222225  35.3630781  53.4178252 103.7994305
  55.7813747  75.3866213  93.9181302  56.4192157  75.2672961  93.2144642
  55.6634590  76.3347057  93.9769254  52.5903453  75.3393642  93.8542826
  52.2521965  75.2234706  92.9663361  53.4593221  74.9384807  93.8343832
  48.4490269  77.1929118  89.8439717  47.8855134  77.1019055  89.0756005
  48.3342664  76.3729022  90.3242210  53.0723236  76.4928493  99.8129032
  53.0611877  76.0981292  98.9409535  53.2343876  75.7594566 100.4062803
  45.9954701  78.6880310  92.6823938  46.7875993  78.3471134  92.2670237
  46.2351351  78.7975285  93.6026091  54.0289828  80.8600086  85.1554182
  53.3777807  81.4454166  84.7688196  54.8234190  81.3906281  85.2149220
  47.9545455  77.9489223  85.5541316  48.7276331  77.4018210  85.4154192
  48.3070854  78.8133472  85.7655778  49.7930497  79.2765605  98.7608216
  49.5020363  80.1811236  98.6454882  50.4287482  79.3182133  99.4752285
  50.7186704  76.6542454  95.3509575  51.3150276  76.4298476  94.6366538
  50.7761676  75.9127199  95.9535023  50.2911733  74.1081889  83.1859766
  50.5437253  73.5863410  82.4243229  49.3536292  73.9448034  83.2886450
  55.3355015  73.1117667  90.9934510  56.1218105  72.6937090  90.6424927
  55.5993720  74.0163760  91.1616158  55.5065093  78.5490518  85.6923166
  54.8710926  78.6225144  86.4044071  55.1762499  79.1384116  85.0142246
  60.7363442  73.0492901  91.8967488  61.4688614  72.4792117  92.1305318
  59.9802798  72.6614501  92.3373994  50.0108021  76.0109995  85.3884141
  49.8944279  75.3354898  86.0565226  50.1210281  75.5242369  84.5716294
  52.3539562  75.4720142  89.0930831  51.9897769  74.9450763  89.8043752
  53.2106678  75.0818611  88.9197316  58.2588863  66.7614475  96.3562097
  57.9272188  67.6309886  96.1323312  57.6634476  66.4450759  97.0356127
  51.9945049  70.5010042  84.0892179  52.1619452  71.3690278  84.4562650
  51.8042218  70.6637323  83.1653468  54.7520382  78.9627021  95.7558009
  54.4521105  79.8652059  95.6473817  54.4071442  78.6959204  96.6079162
  48.2032864  75.4140817  91.7894714  47.2783360  75.2817032  91.9972406
  48.4517277  76.1935037  92.2864656  58.1517526  71.4809561  93.4355447
  57.2434403  71.4124969  93.1414208  58.1005122  71.9581506  94.2637272
  51.9734270  72.9567699  85.0738846  51.8533895  73.4024750  85.9124326
  51.2786858  73.3053017  84.5152384  45.5641675  75.0574091  92.6238503
  45.6934056  75.3108570  93.5377915  44.8839126  75.6501799  92.3043158
  49.7341162  85.7271341  88.7228977  49.6565192  86.6779166  88.8017458
  49.1302806  85.3817213  89.3803903  52.2258392  72.8999206 101.3790344
  51.4491726  73.4593127 101.3693209  52.8648955  73.3855989 101.9005214
  60.0179173  69.6825999  95.2133321  59.3753553  69.9758532  94.5673115
  59.5134101  69.5678920  96.0186517  57.6719336  73.4289172  85.9019180
  58.5837192  73.6616559  85.7266878  57.1628983  74.0126217  85.3394259
  50.4804764  75.7084660 100.9408311  51.2219449  76.2469704 100.6643135
  49.7741750  76.3350949 101.0979863  55.9560104  77.8513800  99.5380473
  56.3643460  77.4096211  98.7935105  55.2337365  77.2766428  99.7914665
  52.3091174  72.7886407  96.9114030  53.1552369  73.2125821  97.0548679
  52.2489812  72.1320031  97.6052593  56.2788918  78.4114991  93.2932761
  55.6497781  78.5760705  92.5908829  55.8914581  78.8256600  94.0643725
  60.1578150  79.3469429  90.6477125  59.4729189  79.7268330  90.0974159
  60.2422000  79.9564755  91.3809073  55.4590619  70.4490775  98.5695203
  55.2151551  71.2032836  98.0329479  55.7350550  70.8276123  99.4042450
  57.4129082  76.9929388  97.2472469  57.6245977  77.6361148  96.5706850
  57.3658830  76.1591704  96.7794399  55.0155311  69.6047208  94.1509041
  54.1539790  69.9028462  94.4425778  55.0417746  69.8217607  93.2190074
  51.8316880  78.1489399  90.5582847  52.2955226  78.4277102  89.7687469
  51.5673678  77.2472844  90.3755937  48.7240961  77.6960880  93.4962610
  49.2942319  78.1248149  92.8580094  49.3149073  77.4143465  94.1946795
  50.7685766  74.2712551  87.3672412  51.4709810  74.7233595  87.8346338
  50.4366395  73.6296370  87.9952305  49.2166128  72.8624308 101.7423621
  48.5864789  73.5440589 101.9759018  49.1102216  72.7507390 100.7976759
  44.5111100  72.5296104  92.6689545  43.7210154  72.7853633  92.1929656
  45.0022348  73.3444442  92.7741586  58.5274910  79.8701343  95.4194826
  59.3492354  79.4681530  95.1377508  58.5237313  79.7669577  96.3710942
  46.4625846  72.8940683  89.6273022  45.6657009  73.0059377  90.1456518
  46.2351438  73.2327335  88.7613912  52.2931513  79.4185386  97.5755537
  52.3575946  79.8805794  98.4113708  51.5842437  78.7882751  97.7037846
  42.7948803  72.7826594  95.1004536  43.0456842  73.6673604  95.3662112
  43.3308352  72.6031196  94.3279628  66.6180903  76.2140092  91.7679798
  65.8644611  75.6447490  91.6123802  66.7528444  76.1802756  92.7150432
  52.0079531  81.0853494  87.4434517  51.8725206  81.9305030  87.8719365
  52.5489344  81.2872772  86.6800451  48.4946871  67.1645074 104.1048872
  48.1013816  66.6111272 104.7796516  49.3113011  67.4755652 104.4955390
  45.4608928  78.6028932  88.0162442  45.9733449  79.3972182  88.1668007
  46.1131641  77.9055222  87.9496043  47.2703813  81.7194688  90.0985195
  47.4470441  82.6412653  89.9106179  48.0660647  81.4053107  90.5279575
  51.4114832  68.5802953 101.6969129  52.1524545  69.1810106 101.6173591
  51.6432754  67.8380591 101.1387171  46.5556170  73.7659320  99.9747358
  46.4409685  72.8644577 100.2754457  45.7000687  74.0123017  99.6232175
  48.3935129  83.2372862  96.0995538  48.9442554  83.1089925  95.3272531
  47.5546605  83.5367751  95.7490430  52.1902300  79.5023990 100.4439769
  52.7230636  78.7412278 100.2139077  51.6616381  79.2097642 101.1863923
  55.3571995  64.6084056  95.9733410  55.0136264  65.4985697  95.8972521
  55.7250957  64.4185713  95.1102995  43.4257845  76.9317586  88.7922013
  44.2633067  77.3414595  88.5755720  43.6036113  75.9917028  88.7622206
  55.3222277  74.5992667  84.4805845  54.8068901  75.3697272  84.7194233
  55.0499586  73.9257803  85.1038907  52.9069388  69.4442368  89.5391084
  52.0510985  69.0549218  89.3596723  53.3196340  69.5234329  88.6790869
  54.4368535  66.9788711  93.9382644  53.9333331  66.9418846  93.1250449
  54.7299142  67.8881454  93.9979300  50.6811421  67.0627441  92.9448825
  51.5464418  66.8670249  92.5854715  50.7488930  66.8337792  93.8718182
  60.2956551  77.3525022  86.4159019  59.5185994  77.0136181  85.9714181
  60.9748032  77.3577645  85.7413984  55.1108581  72.4719759  86.3065627
  54.8058716  72.7865908  87.1575770  56.0639023  72.5501179  86.3492960
  53.5555012  78.6309982  87.9558581  53.0276374  77.8962742  87.6431818
  53.0542515  79.4084659  87.7098549  58.5347858  76.8259003  93.0725627
  57.8771533  77.5158264  93.1605756  59.3388258  77.2155435  93.4159613
  48.2873740  69.2929649  90.3165192  48.8617492  69.0704830  89.5838385
  48.8744722  69.3618343  91.0693793  57.3453317  75.1803376  91.1229569
  57.8585199  75.8133367  91.6251278  57.9954541  74.5804571  90.7572929
  48.6143327  71.3234110  84.3361077  47.7780639  71.6608796  84.6570352
  48.4748097  71.1883089  83.3988214  50.5896408  66.1670898  89.0440262
  49.9360820  65.8519915  88.4196876  50.5476882  65.5446638  89.7700085
  54.6075691  85.1587700  83.8790240  53.9337390  85.4619397  84.4875198
  54.9941513  85.9616780  83.5295697  53.8234148  72.6552831  93.3687909
  52.9056709  72.8767778  93.2109597  54.2394292  72.7299142  92.5099617
  54.6069196  74.0544247  88.4990589  55.3541015  74.5665644  88.1897712
  54.8760785  73.7328299  89.3594983  52.8795846  76.5502787  85.4817544
  51.9707065  76.2661820  85.5790014  52.9090930  76.9701866  84.6220851
  58.1115113  80.1609377  89.2508711  57.6577440  79.3200287  89.3073902
  57.4809080  80.7970775  89.5883491  57.0548033  71.0901363  90.4809379
  56.3170790  70.5778749  90.8119621  57.3074806  70.6501745  89.6692656
  56.5548053  81.9985874  90.1858529  56.8471027  82.5590931  89.4670895
  57.0646673  82.2914435  90.9411689  57.1559660  63.8677615  91.0751148
  57.4618537  63.0074978  90.7877063  57.8812265  64.4595235  90.8750142
  43.4484016  74.2708302  89.4632746  43.2508416  73.6777662  88.7383813
  42.8930680  73.9660512  90.1808685  51.4280740  74.1631408  91.5827339
  51.4829350  73.2105244  91.5069816  50.6171942  74.3190847  92.0668638
  49.3673100  72.7808468  89.3417718  48.5540965  73.0802638  89.7482910
  49.8632094  72.3864157  90.0592200  51.5181678  82.7766225  91.2751983
  51.4757857  83.0027071  90.3460515  52.4344377  82.5429599  91.4237784
  54.9647312  73.2450292  98.1732612  55.3196699  73.4721765  99.0327078
  55.6119443  73.5768669  97.5509867  60.6945049  76.3668728  88.8781941
  60.5562947  76.5570324  87.9503130  60.3381267  77.1288111  89.3349992
  48.8587175  70.3526823  94.9578953  49.4986554  70.2115582  94.2601916
  48.0264705  70.0661337  94.5817555  60.7214428  78.4345255  93.8893212
  61.1550935  78.3420544  94.7376266  61.4346009  78.4102756  93.2513228
  49.6347479  79.6529254  91.0713945  50.4288077  79.1579574  90.8696520
  48.9239171  79.1247117  90.7081651  54.4542323  82.0347349  95.4226313
  54.5079345  82.6038286  96.1904029  53.5857104  82.2049234  95.0580350
  45.9430242  73.7972335  87.1473698  45.0127830  73.7356791  87.3643660
  46.0387714  73.2748288  86.3510339  45.8615791  70.3227148  89.7351940
  46.1222608  71.2372482  89.6261100  46.6832963  69.8551591  89.8848553
  47.3340716  71.7364906  96.9050764  48.0063770  71.5282268  96.2563413
  46.5070503  71.5386991  96.4655997  61.5829978  78.4768956  96.4226098
  61.7765868  79.3814766  96.6685373  61.4830596  78.0176375  97.2564683
  53.2366288  68.3626846  98.9216425  52.5894203  69.0616796  98.8280902
  54.0067304  68.7962990  99.2892673  53.4130423  76.2007611  96.9813245
  54.3422483  76.3518771  96.8082212  52.9921453  76.2891632  96.1261891
  52.2118755  80.2258276  94.7511782  52.0729840  79.8577060  95.6237721
  51.4233351  80.7405915  94.5795740  52.8066907  85.3267372  86.0937319
  52.9818662  84.8555415  86.9082942  52.1199695  85.9533138  86.3218580
  53.7623970  79.6039878  92.1400620  53.4273802  79.5640648  93.0358270
  53.2627915  78.9384594  91.6671031  47.7368214  75.0107508  97.6653201
  47.5988012  74.2787747  98.2664740  48.6473137  74.9216409  97.3837389
  50.3650514  74.7227468  97.1536881  51.0750133  74.0820660  97.1123500
  50.3219823  74.9740363  98.0763062  49.0779448  71.7092686  98.9732521
  48.5416805  71.2583424  99.6254117  48.4896157  71.8438595  98.2302985
  47.3727992  88.4756735  92.8677179  47.6124590  89.1075259  93.5456198
  46.5297188  88.1244775  93.1542538  48.4881707  71.1681337  81.5358984
  47.6111174  71.0470138  81.1721231  48.9639460  70.3767415  81.2837873
  58.3554700  79.6234405  98.3057440  57.4681479  79.2860327  98.4283839
  58.9253251  78.8917436  98.5426205  40.0083847  75.9558497  91.6300491
  40.6954887  75.6420227  91.0421507  39.8531976  76.8599861  91.3567743
  44.8118570  70.8448693  96.0585515  44.7276758  70.2374363  95.3235925
  43.9901276  71.3357712  96.0595011  51.8855854  84.2835857  95.2718683
  51.8126025  85.0890829  95.7837988  51.4433247  84.4827823  94.4466705
  51.6745633  83.5207627  88.7821505  50.8913155  84.0629308  88.8759729
  52.3738379  84.0381607  89.1815746  54.9842283  69.3302257  91.4255710
  55.4810983  68.5772219  91.1056780  54.2129265  69.3666574  90.8598919
  62.8372041  75.0342622  93.0674002  62.8261917  75.9167338  92.6967935
  61.9689420  74.6814173  92.8728539  56.0672064  78.0873944  88.9994134
  55.1328343  78.2075407  88.8298838  56.2448733  77.1846411  88.7354143
  51.5677252  71.4719640  91.1527395  51.1975040  70.9190680  91.8408300
  52.0636345  70.8677773  90.6002395  59.4544615  73.9291263  89.5344168
  59.9205068  74.7619255  89.4604470  59.9052116  73.4636245  90.2389426
  49.3966451  81.9317135  98.2482413  50.0975910  82.5653618  98.4011807
  48.9261566  82.2731866  97.4878052  57.5220847  80.2735085  86.5330320
  57.7980690  80.1591679  87.4424194  56.6525345  79.8752570  86.4942493
  57.4261278  66.2971850  93.5735069  56.5124358  66.5276077  93.7417276
  57.8554380  66.3810294  94.4249101  57.1967737  74.4861742  96.0734963
  56.5439187  74.7337650  95.4187416  57.5748117  73.6725881  95.7397440
  54.1574911  84.5221436  90.1763133  54.3397305  83.7043091  90.6390886
  54.9807897  84.7389128  89.7388023  54.4917076  83.4489621  87.4378182
  55.0204843  82.9382075  86.8248344  54.7545296  83.1332151  88.3023715
  53.2455310  75.2281553 102.5601000  52.5695947  75.1275683 103.2303375
  54.0682944  75.0720767 103.0236997  44.9934169  81.4653490  95.1813515
  45.5787606  80.7197178  95.3141420  44.7959007  81.7757447  96.0650179
  47.8472824  84.5004737  90.1975958  47.1783199  84.9850865  89.7139998
  47.7085694  84.7473958  91.1119336  39.5851824  74.0359090  93.9017958
  39.6235923  73.5022681  94.6955077  39.0792116  73.5094296  93.2828936
  46.9642586  68.8823631  97.3980501  47.0283912  69.7438462  96.9857898
  46.9009706  68.2697632  96.6652859  46.4394858  70.9546763 101.0453535
  47.0666897  70.5723841 101.6591059  45.5822777  70.7360965 101.4109228
  43.2160401  72.7623192  86.9771890  43.5113842  71.8533871  86.9238944
  42.3148437  72.7410932  86.6552892  55.1246480  84.4830456  93.7822298
  54.9997619  83.6820196  93.2733244  55.7825571  84.9776650  93.2936268
  46.7454648  70.8379189  92.9599438  46.0241234  71.4515157  92.8206912
  47.5347904  71.3736954  92.8816084  57.1881388  82.2839476  95.4101848
  56.2411724  82.1644828  95.3380175  57.5364161  81.3961975  95.4928110
  49.5480962  68.1733615  99.2340090  50.0715363  68.4195912  99.9966400
  49.3293295  69.0053650  98.8143228  44.9448243  70.4437290  87.1011215
  44.6160949  69.5634669  86.9186321  45.2987613  70.3884959  87.9887604
  54.1927822  82.0792193  91.6106201  54.0452784  81.1508900  91.7913771
  55.0181315  82.1012283  91.1263276  48.0590066  70.7310260  87.4686693
  48.3986138  71.2596181  86.7465301  48.5062186  71.0690666  88.2445259
  57.7961943  82.9020751  92.6971073  58.7208491  82.6963613  92.5595524
  57.6277247  82.6537153  93.6060415  50.7533507  69.1147311  96.9189761
  50.4130327  68.3155124  97.3210441  50.0472513  69.4149021  96.3466594
  51.4049979  66.1996623  95.3717084  52.2276048  65.7257101  95.2495974
  51.6488042  66.9787107  95.8715770  50.0458213  69.2284881  85.6679985
  50.7666576  69.6066134  85.1643702  49.4223517  69.9473758  85.7714963
  54.1889336  69.9330030  86.6038318  54.4052950  70.8154668  86.3027146
  53.7083403  69.5416244  85.8743960  48.9288557  72.8915744  93.1809062
  48.7833138  73.2056047  94.0733344  48.4513761  73.5100644  92.6279961
  50.7884940  69.8818292  93.2289952  50.7746509  68.9859385  92.8922250
  51.5057368  69.8888955  93.8628238  52.6411071  70.3155632  95.2743079
  52.3828849  71.2372702  95.2727410  52.1096111  69.9186066  95.9643544
  57.5857260  83.4206419  88.0533165  57.7594137  82.8552841  87.3007017
  58.0786151  84.2207314  87.8712655  43.4034219  75.4321088  96.1196724
  42.8587688  76.2080896  96.2516998  44.2813569  75.7791892  95.9615845
  50.1921836  68.7632672  88.4977522  50.3137747  67.8349318  88.6968410
  49.9023878  68.7771358  87.5855838  53.0613026  66.4487582  91.6344242
  53.0834723  66.5126915  90.6796221  53.4781086  65.6092091  91.8284748
  63.4396651  76.1842842  89.6723465  63.8827797  75.4350167  89.2742588
  62.5623161  76.1752978  89.2897196  58.5732432  82.7373183  85.1530063
  59.2683337  83.3579876  85.3717378  58.9155582  81.8868535  85.4282441
  44.1900241  74.5590984  99.0126880  43.4481977  74.7073620  99.5991511
  43.8692986  74.8199250  98.1493630  60.4723855  80.1872889  86.6817394
  60.9975179  80.5260162  85.9566714  60.3846208  79.2519904  86.4980528
  52.1564516  86.2544872  91.0412647  51.7169506  85.7621251  91.7345504
  52.9072633  85.7117840  90.8004722  44.6356855  82.4456413  91.0437275
  45.4614875  82.1460185  90.6635919  44.2850907  81.6764035  91.4927064
  49.6038388  81.7982881  93.1134949  48.9818397  81.1353586  92.8137177
  50.2743255  81.8244013  92.4308596  42.8365460  80.3642739  92.0026209
  41.9997368  79.9364914  91.8210210  42.8089105  80.5575183  92.9397000
  49.6762916  70.2764669 102.7067455  49.7251071  71.1526792 102.3245224
  50.2185430  69.7342062 102.1339098  49.1651895  80.3486805  86.5893409
  49.3140015  81.0322269  85.9360082  49.9718339  80.3291895  87.1042865
  57.5719399  73.6529187 100.6160627  58.4729262  73.5135652 100.3244625
  57.6467373  73.8183642 101.5558804  51.9062204  71.0296042  99.4613813
  51.0365513  71.3229608  99.1896402  52.1421684  71.6136487 100.1821077
  62.9829516  77.6548080  92.0645912  63.8176407  78.0937884  92.2283472
  63.1188644  77.1786733  91.2454158  60.0321021  75.2127815  98.0123400
  60.5075143  75.4055461  97.2042251  59.1086587  75.2687001  97.7666784
  46.9204528  76.3751982  87.5954478  46.6750570  75.4714312  87.7934688
  47.0900443  76.3769133  86.6533956  54.6101238  67.2475659  96.9779234
  55.1283182  67.9836685  96.6525722  54.2556371  67.5539652  97.8125993
  46.1900176  72.1080340  85.0940640  45.4969421  72.1824695  84.4380676
  45.9451927  71.3440683  85.6162157  54.8613832  63.6675941  92.4980130
  55.1415586  62.9999130  93.1240557  55.6464439  63.8605037  91.9854794
  52.6647301  82.8434935  84.0605157  52.0921268  83.4625122  83.6075628
  53.2380094  83.3934297  84.5945079  58.7322690  72.0893575  96.2451705
  59.6840113  72.1891673  96.2663929  58.5626141  71.2971844  96.7549790
  56.7537070  69.1749158  96.4311106  56.1587002  69.4554171  95.7357595
  56.4686767  69.6643059  97.2027847  55.8844560  83.1272085  85.1913739
  56.8175234  83.0617647  85.3946614  55.7967773  83.9628352  84.7328272
  58.5132577  82.4437955  82.1517686  58.4346209  82.1097819  83.0453444
  59.3342244  82.9359723  82.1509159  61.2110768  75.3099695  95.3594005
  61.1787088  74.3715695  95.5453689  61.8211392  75.3883731  94.6259830
  61.3605257  72.1010738  95.4052288  60.8444305  71.3169195  95.2182217
  62.2445205  71.7729455  95.5698808  59.0215984  65.8451754  91.3648101
  58.8240805  65.5366842  92.2491433  59.6315689  66.5713393  91.4946031
  67.0287318  76.3715702  94.5000042  67.7590707  76.1100990  95.0607745
  66.4194264  75.6344424  94.5402110  65.1102615  74.5123564  95.0974493
  64.3835779  74.3779529  94.4890985  64.6949902  74.8200393  95.9031211
  51.2337016  72.1045724  81.3376094  50.3268472  71.8078837  81.4138808
  51.5112997  71.8075542  80.4710381  42.1514957  73.4252088  91.7875141
  41.8317741  72.5717396  91.4949515  41.6048385  73.6400666  92.5433108
  45.9294864  76.1414529  95.5044647  46.1480874  77.0731636  95.5232681
  46.3420638  75.7822503  96.2899451  52.8499082  66.6482614  87.4920336
  52.0399810  66.3029699  87.8675582  53.5383499  66.3390158  88.0807947
  54.7789630  65.7260661  89.1144632  55.3320669  66.1456114  89.7734655
  55.0159717  64.7996409  89.1567588  50.8022729  71.7147734 104.8947396
  50.7019456  72.6642091 104.8259487  50.5844272  71.3865973 104.0223466
  50.0035801  68.9632659  81.4788074  50.8654965  69.2887558  81.7383891
  50.1886145  68.1764155  80.9661139  42.0203217  77.0454999  93.7568262
  41.3266688  76.6308952  93.2438217  42.7676208  77.0875536  93.1601681
  58.1568437  67.8361186  88.6223297  57.5767106  68.4945990  88.2401349
  57.8904370  67.0138530  88.2110714  56.6072004  67.2366244  90.8244617
  57.1071782  67.3482778  90.0158936  57.2507612  66.9327296  91.4645425
  50.6654000  75.1444873 103.7112458  50.1821081  75.9445233 103.9176347
  50.7514939  75.1552818 102.7579902  43.9339959  76.9773253  91.6334277
  43.9110647  77.0760940  90.6816160  44.2440596  77.8238404  91.9551443
  46.5927337  79.0349408  95.7480892  47.5470591  79.0033350  95.6810823
  46.3939861  78.5740032  96.5631118  47.1826719  77.6050524  98.3151689
  48.0019608  78.0994603  98.3386527  47.4563527  76.6882492  98.2869257
  56.9393315  69.9961276  87.6779645  56.0519170  70.2810927  87.4599840
  57.3547304  69.8355040  86.8306922  60.2907852  70.0207797  91.3933984
  61.0668242  70.5104250  91.6658601  59.5655986  70.4465851  91.8505854
  62.7280410  70.7335416  92.4507925  63.3224901  70.4931152  91.7401233
  62.8006994  70.0142547  93.0781461  44.9477566  84.5769027  92.7651090
  44.8132034  83.8169428  92.1989088  44.5309628  85.3009927  92.2979878
  56.9134339  75.5115812  87.8929935  56.8569541  75.9684364  87.0537567
  57.4662682  74.7506497  87.7152778  60.7239145  71.3005544  88.7180054
  60.4676079  70.9002180  89.5488262  60.0992013  72.0149338  88.5930194
  65.0351483  74.0401617  91.2251346  64.4751041  74.1094807  91.9982908
  64.4294986  73.8642602  90.5050842  48.1046692  85.4738344  92.9769532
  47.9879076  86.4183777  92.8748222  47.2839138  85.1711906  93.3655331
  57.9923226  80.1988480  83.8226125  58.8268830  79.7669679  83.6403600
  57.8307569  80.0270494  84.7503019  57.6469118  76.7020593  85.1882464
  57.5917922  76.5364865  84.2470908  57.0215174  77.4096626  85.3444654
  42.4361633  71.9388658  99.0143886  43.0820497  71.4287612  99.5031112
  42.2278785  72.6757339  99.5887312  50.9565244  66.2028702  84.7667783
  50.9443914  67.1470542  84.9236053  51.8488666  66.0198848  84.4727244
  49.1301206  86.1266606  96.1925461  50.0328453  86.1590216  96.5091956
  48.9038576  85.1967057  96.2071796  50.8854808  84.8797593  92.8535539
  49.9350439  84.8799454  92.7399911  51.1887294  84.1330327  92.3371574
  54.7717363  62.7971479  89.0213719  54.0049759  62.2429966  89.1670402
  55.1828068  62.8693348  89.8827871  46.7759124  69.0856275 103.1118901
  47.6390586  68.7293080 103.3222225  46.2024535  68.7470170 103.7994305
  59.2884023  92.5221036  89.8439717  58.7248888  92.4310973  89.0756005
  59.1736418  91.7020940  90.3242210  64.8683582  96.1892003  85.1554182
  64.2171562  96.7746084  84.7688196  65.6627945  96.7198198  85.2149220
  58.7939209  93.2781141  85.5541316  59.5670085  92.7310128  85.4154192
  59.1464608  94.1425390  85.7655778  61.1305487  89.4373807  83.1859766
  61.3831008  88.9155328  82.4243229  60.1930046  89.2739952  83.2886450
  66.3458847  93.8782435  85.6923166  65.7104680  93.9517062  86.4044071
  66.0156254  94.4676034  85.0142246  60.8501776  91.3401913  85.3884141
  60.7338034  90.6646816  86.0565226  60.9604036  90.8534287  84.5716294
  63.1933317  90.8012060  89.0930831  62.8291524  90.2742681  89.8043752
  64.0500433  90.4110529  88.9197316  62.8338804  85.8301959  84.0892179
  63.0013206  86.6982196  84.4562650  62.6435973  85.9929241  83.1653468
  62.8128025  88.2859617  85.0738846  62.6927650  88.7316668  85.9124326
  62.1180613  88.6344935  84.5152384  68.5113091  88.7581090  85.9019180
  69.4230947  88.9908477  85.7266878  68.0022738  89.3418134  85.3394259
  61.6079521  89.6004469  87.3672412  62.3103564  90.0525513  87.8346338
  61.2760149  88.9588288  87.9952305  55.3504855  87.8588022  92.6689545
  54.5603909  88.1145550  92.1929656  55.8416102  88.6736360  92.7741586
  57.3019600  88.2232601  89.6273022  56.5050764  88.3351295  90.1456518
  57.0745192  88.5619253  88.7613912  56.3002683  93.9320850  88.0162442
  56.8127203  94.7264100  88.1668007  56.9525396  93.2347140  87.9496043
  54.2651600  92.2609504  88.7922013  55.1026822  92.6706512  88.5755720
  54.4429867  91.3208946  88.7622206  66.1616032  89.9284585  84.4805845
  65.6462655  90.6989189  84.7194233  65.8893340  89.2549721  85.1038907
  63.7463143  84.7734285  89.5391084  62.8904739  84.3841136  89.3596723
  64.1590095  84.8526246  88.6790869  61.5205175  82.3919358  92.9448825
  62.3858172  82.1962167  92.5854715  61.5882684  82.1629710  93.8718182
  65.9502335  87.8011677  86.3065627  65.6452471  88.1157826  87.1575770
  66.9032777  87.8793097  86.3492960  64.3948767  93.9601900  87.9558581
  63.8670128  93.2254660  87.6431818  63.8936270  94.7376576  87.7098549
  59.1267494  84.6221566  90.3165192  59.7011246  84.3996748  89.5838385
  59.7138477  84.6910261  91.0693793  59.4537082  86.6526027  84.3361077
  58.6174394  86.9900714  84.6570352  59.3141851  86.5175007  83.3988214
  61.4290162  81.4962815  89.0440262  60.7754575  81.1811832  88.4196876
  61.3870636  80.8738556  89.7700085  62.5401367  91.7782110  80.9593554
  61.6328429  91.5471364  81.1584703  63.0372399  90.9819730  81.1467535
  65.4462950  89.3836164  88.4990589  66.1934769  89.8957562  88.1897712
  65.7154540  89.0620217  89.3594983  63.7189600  91.8794705  85.4817544
  62.8100820  91.5953738  85.5790014  63.7484684  92.2993784  84.6220851
  67.8941787  86.4193281  90.4809379  67.1564544  85.9070667  90.8119621
  68.1468561  85.9793662  89.6692656  67.9953415  79.1969533  91.0751148
  68.3012292  78.3366896  90.7877063  68.7206020  79.7887153  90.8750142
  54.2877771  89.6000219  89.4632746  54.0902171  89.0069580  88.7383813
  53.7324435  89.2952429  90.1808685  63.4165688  93.4203449  82.8205622
  62.9785118  92.7039308  82.3611260  64.1576129  93.6479564  82.2590714
  60.2066854  88.1100385  89.3417718  59.3934720  88.4094556  89.7482910
  60.7025849  87.7156074  90.0592200  56.7823997  89.1264253  87.1473698
  55.8521585  89.0648709  87.3643660  56.8781469  88.6040206  86.3510339
  56.7009546  85.6519066  89.7351940  56.9616363  86.5664399  89.6261100
  57.5226718  85.1843509  89.8848553  67.5376916  92.2787830  82.4137680
  66.9206087  91.5534659  82.3170733  67.0693404  93.0397191  82.0704754
  59.3275462  86.4973255  81.5358984  58.4504928  86.3762056  81.1721231
  59.8033215  85.7059333  81.2837873  50.8477602  91.2850414  91.6300491
  51.5348642  90.9712145  91.0421507  50.6925731  92.1891779  91.3567743
  55.6512324  86.1740611  96.0585515  55.5670513  85.5666281  95.3235925
  54.8295030  86.6649629  96.0595011  65.8236038  84.6594175  91.4255710
  66.3204737  83.9064137  91.1056780  65.0523019  84.6958491  90.8598919
  62.4071007  86.8011558  91.1527395  62.0368794  86.2482598  91.8408300
  62.9030099  86.1969691  90.6002395  50.4245578  89.3651008  93.9017958
  50.4629678  88.8314599  94.6955077  49.9185871  88.8386213  93.2828936
  54.0554156  88.0915110  86.9771890  54.3507597  87.1825788  86.9238944
  53.1542191  88.0702849  86.6552892  57.5848403  86.1671107  92.9599438
  56.8634988  86.7807074  92.8206912  58.3741658  86.7028871  92.8816084
  55.7841997  85.7729208  87.1011215  55.4554703  84.8926587  86.9186321
  56.1381368  85.7176876  87.9887604  58.8983820  86.0602177  87.4686693
  59.2379893  86.5888099  86.7465301  59.3455941  86.3982584  88.2445259
  60.8851968  84.5576799  85.6679985  61.6060330  84.9358052  85.1643702
  60.2617272  85.2765676  85.7714963  65.0283090  85.2621948  86.6038318
  65.2446705  86.1446586  86.3027146  64.5477158  84.8708161  85.8743960
  61.6278695  85.2110209  93.2289952  61.6140263  84.3151303  92.8922250
  62.3451123  85.2180873  93.8628238  61.0315591  84.0924590  88.4977522
  61.1531502  83.1641236  88.6968410  60.7417633  84.1063275  87.5855838
  63.9006781  81.7779500  91.6344242  63.9228478  81.8418833  90.6796221
  64.3174840  80.9384009  91.8284748  60.0045650  95.6778722  86.5893409
  60.1533770  96.3614187  85.9360082  60.8112093  95.6583812  87.1042865
  57.7598283  91.7043900  87.5954478  57.5144324  90.8006230  87.7934688
  57.9294197  91.7061050  86.6533956  57.0293930  87.4372257  85.0940640
  56.3363175  87.5116612  84.4380676  56.7845682  86.6732601  85.6162157
  65.7007587  78.9967859  92.4980130  65.9809340  78.3291048  93.1240557
  66.4858194  79.1896954  91.9854794  63.5041055  98.1726853  84.0605157
  62.9315022  98.7917040  83.6075628  64.0773849  98.7226214  84.5945079
  69.3526332  97.7729873  82.1517686  69.2739963  97.4389737  83.0453444
  70.1735998  98.2651641  82.1509159  63.8887854  89.5087665  81.4021209
  64.8346958  89.3793874  81.4709627  63.5102099  88.7702327  81.8790637
  69.8609738  81.1743671  91.3648101  69.6634559  80.8658760  92.2491433
  70.4709444  81.9005310  91.4946031  62.0730771  87.4337642  81.3376094
  61.1662226  87.1370755  81.4138808  62.3506752  87.1367460  80.4710381
  52.9908711  88.7544005  91.7875141  52.6711495  87.9009313  91.4949515
  52.4442139  88.9692583  92.5433108  63.6892836  81.9774532  87.4920336
  62.8793565  81.6321616  87.8675582  64.3777253  81.6682075  88.0807947
  65.6183385  81.0552578  89.1144632  66.1714423  81.4748032  89.7734655
  65.8553471  80.1288326  89.1567588  60.8429555  84.2924577  81.4788074
  61.7048719  84.6179475  81.7383891  61.0279900  83.5056073  80.9661139
  68.9962192  83.1653103  88.6223297  68.4160861  83.8237908  88.2401349
  68.7298125  82.3430448  88.2110714  67.4465758  82.5658161  90.8244617
  67.9465537  82.6774696  90.0158936  68.0901366  82.2619214  91.4645425
  54.7733714  92.3065170  91.6334277  54.7504402  92.4052858  90.6816160
  55.0834350  93.1530321  91.9551443  67.7787070  85.3253194  87.6779645
  66.8912925  85.6102844  87.4599840  68.1941059  85.1646957  86.8306922
  66.9230283  95.0897869  81.7727665  67.6266133  95.2947871  82.3885320
  66.1992932  95.6574630  82.0376748  67.7528094  90.8407730  87.8929935
  67.6963295  91.2976281  87.0537567  68.3056436  90.0798414  87.7152778
  71.5632900  86.6297462  88.7180054  71.3069834  86.2294097  89.5488262
  70.9385768  87.3441256  88.5930194  68.8316981  95.5280398  83.8226125
  69.6662585  95.0961596  83.6403600  68.6701324  95.3562411  84.7503019
  68.4862873  92.0312511  85.1882464  68.4311677  91.8656782  84.2470908
  67.8608928  92.7388544  85.3444654  65.6111118  78.1263397  89.0213719
  64.8443514  77.5721883  89.1670402  66.0221823  78.1985265  89.8827871
  21.5108565  11.8786455  71.8799489  20.8596545  12.4640536  71.4933503
  22.3052928  12.4092650  71.9394526  15.4364192   8.9675592  72.2786623
  16.2095068   8.4204580  72.1399499  15.7889591   9.8319842  72.4901085
  17.7730470   5.1268259  69.9105073  18.0255991   4.6049780  69.1488536
  16.8355029   4.9634404  70.0131757  22.9883830   9.5676887  72.4168473
  22.3529663   9.6411514  73.1289378  22.6581237  10.1570486  71.7387552
  17.4926759   7.0296364  72.1129448  17.3763017   6.3541268  72.7810532
  17.6029019   6.5428738  71.2961601  19.4553008   3.9754069  71.7984153
  19.3352633   4.4211120  72.6369633  18.7605596   4.3239386  71.2397691
  17.2159900  16.7457711  75.4474284  17.1383930  17.6965536  75.5262764
  16.6121544  16.4003583  76.1049210  25.1538074   4.4475542  72.6264487
  26.0655930   4.6802929  72.4512184  24.6447721   5.0312586  72.0639565
  27.6396888  10.3655798  77.3722432  26.9547926  10.7454700  76.8219465
  27.7240737  10.9751125  78.1054380  19.3135618   9.1675769  77.2828153
  19.7773964   9.4463471  76.4932776  19.0492416   8.2659213  77.1001244
  18.2504504   5.2898921  74.0917718  18.9528548   5.7419965  74.5591645
  17.9185133   4.6482740  74.7197611  34.0999641   7.2326461  78.4925104
  33.3463349   6.6633859  78.3369109  34.2347182   7.1989126  79.4395739
  19.4898269  12.1039864  74.1679824  19.3543944  12.9491399  74.5964671
  20.0308081  12.3059141  73.4045757  12.9427666   9.6215302  74.7407749
  13.4552187  10.4158552  74.8913313  13.5950379   8.9241592  74.6741350
  14.7522551  12.7381058  76.8230502  14.9289179  13.6599023  76.6351486
  15.5479384  12.4239477  77.2524882  22.8041015   5.6179036  71.2051152
  22.2887639   6.3883641  71.4439540  22.5318324   4.9444173  71.8284214
  27.7775289   8.3711391  73.1404326  27.0004732   8.0322551  72.6959488
  28.4566770   8.3764014  72.4659291  22.5927318   3.4906129  73.0310933
  22.2877454   3.8052278  73.8821076  23.5457760   3.5687548  73.0738266
  21.0373750   9.6496352  74.6803887  20.5095112   8.9149111  74.3677125
  20.5361253  10.4271028  74.4343856  26.0166596   7.8445372  79.7970934
  25.3590271   8.5344634  79.8851062  26.8206995   8.2341804  80.1404920
  24.8272055   6.1989745  77.8474875  25.3403937   6.8319737  78.3496585
  25.4773279   5.5990941  77.4818235  19.1826350   7.4676562  67.6838860
  18.2753412   7.2365816  67.8830009  19.6797382   6.6714181  67.8712842
  22.0894429  16.1774069  70.6035546  21.4156128  16.4805766  71.2120504
  22.4760251  16.9803150  70.2541004  22.0887934   5.0730616  75.2235896
  22.8359753   5.5852014  74.9143018  22.3579523   4.7514669  76.0840290
  20.3614584   7.5689157  72.2062850  19.4525803   7.2848190  72.3035320
  20.3909668   7.9888236  71.3466157  25.5933851  11.1795747  75.9754018
  25.1396178  10.3386656  76.0319208  24.9627818  11.8157145  76.3128798
  24.0366790  13.0172243  76.9103836  24.3289765  13.5777300  76.1916202
  24.5465411  13.3100804  77.6656995  20.0590672   9.1097901  69.5450929
  19.6210101   8.3933760  69.0856566  20.8001112   9.3374016  68.9836020
  19.0000416  13.7952594  77.9997289  18.9576594  14.0213441  77.0705821
  19.9163114  13.5615969  78.1483090  28.1763786   7.3855098  75.6027248
  28.0381685   7.5756694  74.6748437  27.8200005   8.1474481  76.0595299
  28.2033166   9.4531625  80.6138519  28.6369673   9.3606914  81.4621573
  28.9164747   9.4289125  79.9758535  20.2885644  16.3453742  72.8182626
  20.4637400  15.8741785  73.6328248  19.6018432  16.9719508  73.0463886
  24.1801899   7.9682282  69.1382987  23.5631070   7.2429111  69.0416039
  23.7118388   8.7291643  68.7950061  14.8546730  19.4943105  79.5922486
  15.0943328  20.1261629  80.2701504  14.0115926  19.1431145  79.8787845
  19.1564371  14.5393997  75.5066811  18.3731893  15.0815677  75.6005036
  19.8557116  15.0567977  75.9061053  30.3190779   6.0528992  79.7919308
  30.3080655   6.9353707  79.4213241  29.4508158   5.7000543  79.5973845
  23.5490802   9.1060314  75.7239440  22.6147081   9.2261776  75.5544144
  23.7267470   8.2032780  75.4599450  26.9363353   4.9477633  76.2589474
  27.4023805   5.7805625  76.1849777  27.3870854   4.4822615  76.9634733
  25.0039584  11.2921454  73.2575626  25.2799428  11.1778049  74.1669500
  24.1344083  10.8938939  73.2187799  21.6393648  15.5407805  76.9008440
  21.8216043  14.7229461  77.3636192  22.4626634  15.7575497  76.4633330
  21.9735814  14.4675990  74.1623488  22.5023580  13.9568445  73.5493651
  22.2364033  14.1518520  75.0269021  15.3291562  15.5191107  76.9221264
  14.6601937  16.0037235  76.4385304  15.1904432  15.7660327  77.8364643
  22.6065218  15.5016826  80.5067605  22.4816357  14.7006566  79.9978550
  23.2644309  15.9963019  80.0181575  21.6746559  13.0978562  78.3351507
  21.5271522  12.1695270  78.5159077  22.5000053  13.1198653  77.8508582
  25.2780681  13.9207121  79.4216380  26.2027229  13.7149982  79.2840831
  25.1095985  13.6723522  80.3305721  25.0675997  14.4392788  74.7778471
  25.2412875  13.8739211  74.0252324  25.5604889  15.2393683  74.5957961
  30.9215389   7.2029211  76.3968771  31.3646535   6.4536537  75.9987894
  30.0441899   7.1939348  76.0142503  26.0551170  13.7559553  71.8775370
  26.7502075  14.3766246  72.0962684  26.3974320  12.9054904  72.1527748
  27.9542593  11.2059258  73.4062700  28.4793917  11.5446531  72.6812020
  27.8664946  10.2706274  73.2225835  19.6383254  17.2731242  77.7657954
  19.1988244  16.7807620  78.4590810  20.3891371  16.7304209  77.5250029
  16.6470633  11.3673174  73.3138716  16.7958753  12.0508638  72.6605389
  17.4537076  11.3478264  73.8288172  30.4648253   8.6734450  78.7891219
  31.2995145   9.1124254  78.9528779  30.6007382   8.1973103  77.9699464
  20.1466038  13.8621305  70.7850463  19.5740005  14.4811492  70.3320935
  20.7198832  14.4120666  71.3190385  23.3663298  14.1458455  71.9159046
  24.2993971  14.0804016  72.1191921  23.2786511  14.9814722  71.4573578
  25.9951315  13.4624325  68.8762993  25.9164946  13.1284189  69.7698751
  26.8160982  13.9546093  68.8754465  20.5312837   5.1982117  68.1266516
  21.4771942   5.0688325  68.1954934  20.1527082   4.4596779  68.6035944
  34.5106056   7.3902071  81.2245349  35.2409444   7.1287359  81.7853052
  33.9013001   6.6530793  81.2647416  24.4212053   1.0147646  74.4024951
  23.5337908   1.2997296  74.1845146  24.8366042   0.8541409  73.5552228
  23.5655267  10.7792320  68.4972971  24.2691117  10.9842323  69.1130627
  22.8417915  11.3469082  68.7622055  24.3953077   6.5302182  74.6175242
  24.3388278   6.9870733  73.7782874  24.9481419   5.7692866  74.4398084
  28.2057883   2.3191914  75.4425361  27.9494817   1.9188549  76.2733569
  27.5810751   3.0335707  75.3175500  32.5170221   5.0587987  77.9496653
  31.9569779   5.1281176  78.7228215  31.9113724   4.8828971  77.2296149
  15.5865429  16.4924714  79.7014839  15.4697814  17.4370146  79.5993529
  14.7657876  16.1898275  80.0900638  25.4741964  11.2174850  70.5471431
  26.3087568  10.7856048  70.3648906  25.3126307  11.0456863  71.4748326
  25.1287856   7.7206963  71.9127771  25.0736660   7.5551234  70.9716215
  24.5033911   8.4282996  72.0689960  18.3673546  15.8983962  79.5780846
  17.4169177  15.8985824  79.4645218  18.6706032  15.1516697  79.0616880
  34.1026239  21.7344501  80.6426608  34.7404649  21.6151248  79.9389948
  33.9847082  22.6825345  80.7014560  30.9115945  21.6871929  80.5788133
  30.5734457  21.5712994  79.6908668  31.7805714  21.2863094  80.5589139
  26.7702761  23.5407405  76.5685024  26.2067626  23.4497342  75.8001312
  26.6555156  22.7207310  77.0487516  31.3935728  22.8406781  86.5374338
  31.3824369  22.4459579  85.6654842  31.5556368  22.1072853  87.1308110
  24.3167193  25.0358597  79.4069244  25.1088485  24.6949421  78.9915544
  24.5563843  25.1453572  80.3271398  32.3502320  27.2078373  71.8799489
  31.6990300  27.7932453  71.4933503  33.1446683  27.7384568  71.9394526
  26.2757947  24.2967510  72.2786623  27.0488823  23.7496497  72.1399499
  26.6283346  25.1611759  72.4901085  28.1142990  25.6243892  85.4853522
  27.8232856  26.5289523  85.3700189  28.7499974  25.6660420  86.1997592
  29.0399196  23.0020741  82.0754882  29.6362769  22.7776763  81.3611845
  29.0974168  22.2605486  82.6780330  28.6124225  20.4560176  69.9105073
  28.8649745  19.9341697  69.1488536  27.6748784  20.2926322  70.0131757
  33.6567508  19.4595955  77.7179816  34.4430597  19.0415378  77.3670233
  33.9206212  20.3642047  77.8861465  33.8277585  24.8968805  72.4168473
  33.1923418  24.9703431  73.1289378  33.4974991  25.4862404  71.7387552
  39.0575935  19.3971188  78.6212795  39.7901107  18.8270405  78.8550624
  38.3015290  19.0092788  79.0619300  28.3320514  22.3588282  72.1129448
  28.2156772  21.6833186  72.7810532  28.4422773  21.8720656  71.2961601
  30.6752054  21.8198429  75.8176137  30.3110262  21.2929050  76.5289059
  31.5319170  21.4296898  75.6442623  36.5801355  13.1092762  83.0807403
  36.2484680  13.9788173  82.8568618  35.9846968  12.7929046  83.7601434
  30.3157541  16.8488329  70.8137486  30.4831944  17.7168565  71.1807957
  30.1254711  17.0115611  69.8898775  33.0732875  25.3105308  82.4803316
  32.7733598  26.2130347  82.3719123  32.7283934  25.0437491  83.3324469
  26.5245356  21.7619105  78.5140021  25.5995853  21.6295319  78.7217712
  26.7729769  22.5413324  79.0109963  36.4730018  17.8287848  80.1600753
  35.5646896  17.7603256  79.8659514  36.4217614  18.3059793  80.9882579
  30.2946762  19.3045986  71.7984153  30.1746388  19.7503037  72.6369633
  29.5999351  19.6531304  71.2397691  23.8854167  21.4052378  79.3483810
  24.0146548  21.6586857  80.2623221  23.2051618  21.9980086  79.0288465
  28.0553654  32.0749628  75.4474284  27.9777684  33.0257453  75.5262764
  27.4515298  31.7295501  76.1049210  30.5470884  19.2477494  88.1035651
  29.7704218  19.8071414  88.0938515  31.1861447  19.7334277  88.6250521
  38.3391665  16.0304286  81.9378627  37.6966045  16.3236820  81.2918422
  37.8346593  15.9157207  82.7431824  35.9931828  19.7767460  72.6264487
  36.9049685  20.0094846  72.4512184  35.4841476  20.3604504  72.0639565
  28.8017256  22.0562947  87.6653618  29.5431941  22.5947991  87.3888441
  28.0954242  22.6829236  87.8225170  34.2772596  24.1992087  86.2625779
  34.6855952  23.7574498  85.5180412  33.5549858  23.6244715  86.5159972
  30.6303666  19.1364694  83.6359336  31.4764861  19.5604108  83.7793985
  30.5702304  18.4798319  84.3297899  34.6001411  24.7593278  80.0178068
  33.9710273  24.9238992  79.3154136  34.2127073  25.1734888  80.7889032
  38.4790643  25.6947716  77.3722432  37.7941681  26.0746617  76.8219465
  38.5634492  26.3043043  78.1054380  33.7803112  16.7969063  85.2940510
  33.5364043  17.5511123  84.7574785  34.0563042  17.1754410  86.1287757
  35.7341574  23.3407675  83.9717775  35.9458470  23.9839435  83.2952156
  35.6871323  22.5069992  83.5039705  33.3367803  15.9525496  80.8754348
  32.4752282  16.2506749  81.1671085  33.3630238  16.1695895  79.9435380
  30.1529373  24.4967686  77.2828153  30.6167718  24.7755389  76.4932776
  29.8886171  23.5951131  77.1001244  27.0453454  24.0439168  80.2207916
  27.6154811  24.4726436  79.5825401  27.6361566  23.7621752  80.9192102
  29.0898259  20.6190839  74.0917718  29.7922302  21.0711882  74.5591645
  28.7578887  19.9774657  74.7197611  22.8323593  18.8774391  79.3934852
  22.0422647  19.1331920  78.9174963  23.3234840  19.6922729  79.4986892
  36.8487402  26.2179630  82.1440133  37.6704846  25.8159818  81.8622814
  36.8449805  26.1147865  83.0956249  24.7838338  19.2418970  76.3518329
  23.9869501  19.3537665  76.8701824  24.5563930  19.5805623  75.4859219
  30.6144006  25.7663674  84.3000843  30.6788438  26.2284081  85.1359015
  29.9054930  25.1361039  84.4283153  21.1161296  19.1304882  81.8249843
  21.3669334  20.0151892  82.0907419  21.6520844  18.9509483  81.0524935
  44.9393395  22.5618379  78.4925104  44.1857104  21.9925777  78.3369109
  45.0740936  22.5281043  79.4395739  30.3292023  27.4331781  74.1679824
  30.1937698  28.2783317  74.5964671  30.8701836  27.6351059  73.4045757
  23.7821421  24.9507219  74.7407749  24.2945941  25.7450469  74.8913313
  24.4344134  24.2533510  74.6741350  25.5916305  28.0672975  76.8230502
  25.7682934  28.9890940  76.6351486  26.3873139  27.7531395  77.2524882
  31.9560500  28.0555348  88.2980166  31.5124354  27.2691726  87.9801070
  32.6177713  28.2434498  87.6324056  26.7147621  29.5851149  82.8240844
  27.2655046  29.4568213  82.0517838  25.8759097  29.8846038  82.4735737
  34.0541738  28.3358148  86.3261567  34.0360213  29.1567029  85.8341836
  34.9761658  28.2112223  86.5511708  30.5114792  25.8502277  87.1685075
  31.0443129  25.0890565  86.9384383  29.9828873  25.5575929  87.9109230
  33.6784487  10.9562343  82.6978717  33.3348756  11.8463985  82.6217828
  34.0463449  10.7664001  81.8348302  21.7470338  23.2795874  75.5167319
  22.5845560  23.6892882  75.3001027  21.9248605  22.3395316  75.4867513
  33.6434770  20.9470954  71.2051152  33.1281393  21.7175559  71.4439540
  33.3712078  20.2736090  71.8284214  31.2281881  15.7920655  76.2636391
  30.3723477  15.4027505  76.0842029  31.6408832  15.8712616  75.4036176
  32.7581027  13.3266998  80.6627950  32.2545823  13.2897133  79.8495756
  33.0511634  14.2359741  80.7224607  29.0023913  13.4105728  79.6694132
  29.8676910  13.2148537  79.3100021  29.0701422  13.1816080  80.5963489
  38.6169044  23.7003309  73.1404326  37.8398487  23.3614468  72.6959488
  39.2960525  23.7055932  72.4659291  33.4321073  18.8198046  73.0310933
  33.1271208  19.1344195  73.8821076  34.3851515  18.8979466  73.0738266
  31.8767505  24.9788270  74.6803887  31.3488866  24.2441029  74.3677125
  31.3755007  25.7562946  74.4343856  36.8560351  23.1737290  79.7970934
  36.1984025  23.8636551  79.8851062  37.6600750  23.5633722  80.1404920
  26.6086232  15.6407936  77.0410499  27.1829984  15.4183117  76.3083692
  27.1957215  15.7096630  77.7939100  35.6665809  21.5281663  77.8474875
  36.1797691  22.1611655  78.3496585  36.3167033  20.9282858  77.4818235
  26.9355819  17.6712397  71.0606384  26.0993132  18.0087083  71.3815659
  26.7960589  17.5361377  70.1233521  28.9108900  12.5149185  75.7685568
  28.2573312  12.1998202  75.1442183  28.8689374  11.8924925  76.4945391
  32.9288184  31.5065987  70.6035546  32.2549882  31.8097684  71.2120504
  33.3154006  32.3095067  70.2541004  32.1446640  19.0031118  80.0933216
  31.2269202  19.2246065  79.9354904  32.5606784  19.0777429  79.2344923
  32.9281688  20.4022534  75.2235896  33.6753507  20.9143931  74.9143018
  33.1973278  20.0806587  76.0840290  31.2008338  22.8981075  72.2062850
  30.2919558  22.6140108  72.3035320  31.2303422  23.3180153  71.3466157
  36.4327606  26.5087664  75.9754018  35.9789933  25.6678574  76.0319208
  35.8021572  27.1449063  76.3128798  35.3760525  17.4379650  77.2054685
  34.6383282  16.9257036  77.5364928  35.6287299  16.9980032  76.3937962
  34.8760545  28.3464161  76.9103836  35.1683519  28.9069218  76.1916202
  35.3859165  28.6392722  77.6656995  35.4772153  10.2155902  77.7996455
  35.7831029   9.3553266  77.5122370  36.2024757  10.8073522  77.5995449
  21.7696509  20.6186589  76.1878053  21.5720908  20.0255950  75.4629119
  21.2143173  20.3138799  76.9053991  29.7493232  20.5109695  78.3072646
  29.8041842  19.5583532  78.2315122  28.9384434  20.6669134  78.7913944
  27.6885592  19.1286755  76.0663025  26.8753458  19.4280926  76.4728217
  28.1844586  18.7342444  76.7837507  29.8394170  29.1244512  77.9997289
  29.7970349  29.3505358  77.0705821  30.7556869  28.8907887  78.1483090
  33.2859804  19.5928580  84.8977919  33.6409192  19.8200053  85.7572384
  33.9331935  19.9246956  84.2755174  39.0157541  22.7147015  75.6027248
  38.8775439  22.9048611  74.6748437  38.6593760  23.4766398  76.0595299
  27.1799667  16.7005111  81.6824260  27.8199046  16.5593870  80.9847223
  26.3477198  16.4139624  81.3062862  39.0426920  24.7823542  80.6138519
  39.4763427  24.6898832  81.4621573  39.7558501  24.7581043  79.9758535
  27.9559971  26.0007541  77.7959252  28.7500569  25.5057861  77.5941827
  27.2451663  25.4725404  77.4326958  32.7754815  28.3825637  82.1471620
  32.8291838  28.9516573  82.9149336  31.9069597  28.5527522  81.7825657
  24.2642734  20.1450623  73.8719005  23.3340322  20.0835078  74.0888967
  24.3600206  19.6226575  73.0755646  24.1828283  16.6705436  76.4597246
  24.4435101  17.5850769  76.3506407  25.0045456  16.2029878  76.6093859
  25.6553209  18.0843193  83.6296071  26.3276262  17.8760555  82.9808720
  24.8282995  17.8865279  83.1901303  39.9042470  24.8247243  83.1471404
  40.0978360  25.7293054  83.3930679  39.8043088  24.3654662  83.9809989
  31.5578781  14.7105134  85.6461732  30.9106696  15.4095083  85.5526208
  32.3279796  15.1441278  86.0137980  34.9657579  24.9753986  88.7212285
  34.8143085  24.7464538  87.8042369  34.9562258  25.9324587  88.7343630
  31.7342915  22.5485899  83.7058552  32.6634975  22.6997058  83.5327519
  31.3133945  22.6369919  82.8507198  30.5331247  26.5736563  81.4757089
  30.3942333  26.2055347  82.3483027  29.7445843  27.0884202  81.3041047
  31.1279399  31.6745659  72.8182626  31.3031155  31.2033703  73.6328248
  30.4412187  32.3011426  73.0463886  32.0836462  25.9518166  78.8645927
  31.7486295  25.9118936  79.7603577  31.5840408  25.2862882  78.3916337
  26.0580706  21.3585796  84.3898508  25.9200504  20.6266035  84.9910047
  26.9685629  21.2694696  84.1082696  35.0195654  23.2974200  69.1382987
  34.4024824  22.5721028  69.0416039  34.5512142  24.0583560  68.7950061
  28.6863007  21.0705755  83.8782188  29.3962625  20.4298947  83.8368806
  28.6432315  21.3218650  84.8008368  36.6749785  28.0073108  86.7988767
  36.6162331  27.3232329  86.1319350  37.0769304  28.7492098  86.3469393
  25.6940484  34.8235022  79.5922486  25.9337082  35.4553546  80.2701504
  24.8509681  34.4723062  79.8787845  26.8094200  17.5159624  68.2604291
  25.9323666  17.3948425  67.8966538  27.2851953  16.7245703  68.0083180
  36.6767193  25.9712692  85.0302747  35.7893971  25.6338614  85.1529145
  37.2465744  25.2395724  85.2671512  18.3296340  22.3036784  78.3545798
  19.0167380  21.9898514  77.7666813  18.1744468  23.2078149  78.0813049
  23.1331062  17.1926981  82.7830822  23.0489251  16.5852650  82.0481232
  22.3113768  17.6835999  82.7840318  30.2068346  30.6314145  81.9963990
  30.1338517  31.4369116  82.5083294  29.7645739  30.8306110  81.1712011
  29.9958126  29.8685915  75.5066811  29.2125648  30.4107595  75.6005036
  30.6950871  30.3859894  75.9061053  33.3054776  15.6780544  78.1501017
  33.8023475  14.9250506  77.8302087  32.5341757  15.7144861  77.5844226
  41.1584533  21.3820910  79.7919308  41.1474409  22.2645625  79.4213241
  40.2901913  21.0292461  79.5973845  32.6667030  30.5300979  84.1522148
  33.3795002  31.1648444  84.0798050  32.1757058  30.6264845  83.3362150
  34.3884556  24.4352231  75.7239440  33.4540835  24.5553694  75.5544144
  34.5661225  23.5324698  75.4599450  29.8889744  17.8197927  77.8772701
  29.5187532  17.2668968  78.5653607  30.3848837  17.2156061  77.3247701
  37.7757108  20.2769551  76.2589474  38.2417560  21.1097542  76.1849777
  38.2264608  19.8114532  76.9634733  27.7178943  28.2795422  84.9727719
  28.4188403  28.9131905  85.1257114  27.2474058  28.6210154  84.2123359
  35.8433339  26.6213372  73.2575626  36.1193183  26.5069967  74.1669500
  34.9737838  26.2230857  73.2187799  35.7473771  12.6450138  80.2980376
  34.8336850  12.8754364  80.4662583  36.1766872  12.7288582  81.1494408
  35.5180229  20.8340030  82.7980270  34.8651679  21.0815937  82.1432722
  35.8960609  20.0204168  82.4642747  32.4787403  30.8699723  76.9008440
  32.6609797  30.0521379  77.3636192  33.3020389  31.0867415  76.4633330
  32.8129568  29.7967908  74.1623488  33.3417335  29.2860363  73.5493651
  33.0757788  29.4810438  75.0269021  23.3146661  27.8131777  81.9058822
  23.9000098  27.0675465  82.0386726  23.1171500  28.1235734  82.7895486
  26.1685316  30.8483025  76.9221264  25.4995692  31.3329152  76.4385304
  26.0298186  31.0952245  77.8364643  17.9064316  20.3837377  80.6263265
  17.9448415  19.8500968  81.4200383  17.4004609  19.8572583  80.0074242
  30.3090585  32.8826768  83.5203923  30.8608893  33.0458390  84.2853008
  30.6496778  33.4731206  82.8483948  35.1601459  27.7088026  89.3752577
  35.7041363  28.3217984  88.8807532  34.5788304  28.2667604  89.8919590
  21.5372893  19.1101480  73.7017197  21.8326335  18.2012158  73.6484250
  20.6360929  19.0889219  73.3798199  33.4458972  30.8308744  80.5067605
  33.3210112  30.0298483  79.9978550  34.1038063  31.3254937  80.0181575
  25.0667140  17.1857476  79.6844745  24.3453726  17.7993444  79.5452218
  25.8560396  17.7215241  79.6061391  35.5093881  28.6317764  82.1347155
  34.5624216  28.5123115  82.0625482  35.8576654  27.7440262  82.2173416
  23.2660735  16.7915577  73.8256522  22.9373441  15.9112956  73.6431628
  23.6200106  16.7363246  74.7132911  32.5140314  28.4270480  78.3351507
  32.3665276  27.4987187  78.5159077  33.3393807  28.4490571  77.8508582
  26.3802558  17.0788547  74.1931999  26.7198631  17.6074468  73.4710608
  26.8274679  17.4168953  74.9690566  36.1174436  29.2499039  79.4216380
  37.0420983  29.0441900  79.2840831  35.9489739  29.0015440  80.3305721
  29.0745999  15.4625598  83.6435067  28.7342819  14.6633411  84.0455747
  28.3685005  15.7627309  83.0711901  29.7262471  12.5474910  82.0962390
  30.5488540  12.0735388  81.9741281  29.9700534  13.3265394  82.5961077
  28.3670705  15.5763169  72.3925292  29.0879068  15.9544421  71.8889009
  27.7436009  16.2952045  72.4960270  32.5101828  16.2808318  73.3283624
  32.7265443  17.1632955  73.0272453  32.0295895  15.8894531  72.5989266
  27.2501050  19.2394031  79.9054369  27.1045630  19.5534334  80.7978651
  26.7726253  19.8578931  79.3525268  29.1097432  16.2296579  79.9535259
  29.0959001  15.3337672  79.6167557  29.8269861  16.2367243  80.5873545
  30.9623563  16.6633919  81.9988386  30.7041341  17.5850990  81.9972716
  30.4308604  16.2664354  82.6888850  35.9069752  29.7684706  74.7778471
  36.0806629  29.2031129  74.0252324  36.3998643  30.5685601  74.5957961
  21.7246712  21.7799375  82.8442030  21.1800180  22.5559183  82.9762305
  22.6026062  22.1270180  82.6861152  28.5134328  15.1110959  75.2222829
  28.6350240  14.1827605  75.4213716  28.2236371  15.1249645  74.3101144
  31.3825519  12.7965870  78.3589549  31.4047216  12.8605203  77.4041528
  31.7993578  11.9570378  78.5530055  41.7609143  22.5321129  76.3968771
  42.2040289  21.7828454  75.9987894  40.8835653  22.5231265  76.0142503
  36.8944924  29.0851471  71.8775370  37.5895829  29.7058163  72.0962684
  37.2368075  28.2346822  72.1527748  38.7936348  26.5351176  73.4062700
  39.3187672  26.8738449  72.6812020  38.7058700  25.5998191  73.2225835
  30.4556396  30.4485250  85.5352577  30.7643523  30.2034396  86.4075277
  31.2531878  30.6531888  85.0471447  30.4777008  32.6023159  77.7657954
  30.0381999  32.1099538  78.4590810  31.2285125  32.0596127  77.5250029
  22.9569347  28.7934700  77.7682582  23.7827367  28.4938472  77.3881225
  22.6063399  28.0242323  78.2172370  27.9250880  28.1461168  79.8380255
  27.3030890  27.4831873  79.5382483  28.5955747  28.1722300  79.1553903
  21.1577952  26.7121027  78.7271515  20.3209861  26.2843201  78.5455517
  21.1301598  26.9053470  79.6642306  38.4830254  27.1684080  88.7113898
  37.6925797  27.1508219  88.1718398  38.2463608  27.7072373  89.4662935
  38.6028129  24.0176546  86.0246627  38.6526134  23.8526554  86.9662150
  38.4942052  23.1503805  85.6344508  27.4864387  26.6965092  73.3138716
  27.6352508  27.3800556  72.6605389  28.2930831  26.6770182  73.8288172
  35.8931891  20.0007474  87.3405934  36.7941754  19.8613939  87.0489931
  35.9679866  20.1661929  88.2804111  30.2274696  17.3774329  86.1859120
  29.3578006  17.6707895  85.9141709  30.4634177  17.9614774  86.9066384
  40.1046325  26.4373488  86.2688648  39.8131134  26.8003468  87.1052109
  39.4918457  25.7240496  86.0901981  41.3042008  24.0026367  78.7891219
  42.1388899  24.4416171  78.9528779  41.4401137  23.5265021  77.9699464
  38.3533514  21.5606102  84.7368706  38.8287635  21.7533749  83.9287558
  37.4299079  21.6165288  84.4912090  25.2417020  22.7230269  74.3199785
  24.9963062  21.8192599  74.5179995  25.4112935  22.7247420  73.3779263
  32.9313730  13.5953946  83.7024540  33.4495674  14.3314973  83.3771029
  32.5768863  13.9017939  84.5371299  24.5112668  18.4558627  71.8185946
  23.8181913  18.5302982  71.1625982  24.2664420  17.6918971  72.3407463
  33.1826324  10.0154228  79.2225437  33.4628078   9.3477417  79.8485863
  33.9676931  10.2083324  78.7100101  30.9859793  29.1913222  70.7850463
  30.4133760  29.8103409  70.3320935  31.5592587  29.7412584  71.3190385
  37.0535183  18.4371862  82.9697012  38.0052606  18.5369960  82.9909236
  36.8838633  17.6450131  83.4795096  35.0749562  15.5227446  83.1556413
  34.4799494  15.8032458  82.4602902  34.7899259  16.0121346  83.9273154
  34.2057053  29.4750372  71.9159046  35.1387726  29.4095934  72.1191921
  34.1180265  30.3106639  71.4573578  36.8345069  28.7916243  68.8762993
  36.7558701  28.4576106  69.7698751  37.6554736  29.2838011  68.8754465
  39.5323261  21.6577982  82.0839312  39.4999581  20.7193983  82.2698996
  40.1423884  21.7362019  81.3505137  31.3706591  20.5274035  68.1266516
  32.3165696  20.3980243  68.1954934  30.9920836  19.7888697  68.6035944
  39.6817749  18.4489025  82.1297595  39.1656798  17.6647482  81.9427524
  40.5657698  18.1207742  82.2944114  37.3428476  12.1930041  78.0893408
  37.1453297  11.8845129  78.9736740  37.9528181  12.9191680  78.2191337
  45.3499810  22.7193989  81.2245349  46.0803199  22.4579277  81.7853052
  44.7406756  21.9822711  81.2647416  43.4315107  20.8601851  81.8219800
  42.7048271  20.7257816  81.2136291  43.0162394  21.1678680  82.6276518
  31.2545284  24.5791781  89.5867173  32.1748293  24.7570380  89.7807219
  31.2194867  23.6347826  89.4346872  29.5549509  18.4524011  68.0621401
  28.6480964  18.1557124  68.1384115  29.8325490  18.1553829  67.1955687
  20.4727449  19.7730375  78.5120447  20.1530233  18.9195683  78.2194821
  19.9260877  19.9878953  79.2678415  24.2507356  22.4892816  82.2289954
  24.4693366  23.4209924  82.2477988  24.6633130  22.1300790  83.0144758
  31.1711574  12.9960901  74.2165642  30.3612303  12.6507986  74.5920888
  31.8595991  12.6868445  74.8053254  33.1002123  12.0738948  75.8389939
  33.6533161  12.4934401  76.4979962  33.3372209  11.1474696  75.8812895
  28.3248293  15.3110947  68.2033380  29.1867457  15.6365845  68.4629198
  28.5098637  14.5242442  67.6906446  20.3415709  23.3933286  80.4813569
  19.6479180  22.9787239  79.9683523  21.0888700  23.4353823  79.8846988
  36.4780930  14.1839473  75.3468603  35.8979599  14.8424277  74.9646656
  36.2116862  13.3616818  74.9356021  34.9284496  13.5844531  77.5489924
  35.4284274  13.6961065  76.7404242  35.5720104  13.2805584  78.1890732
  22.2552451  23.3251540  78.3579584  22.2323140  23.4239227  77.4061467
  22.5653088  24.1716691  78.6796750  24.9139829  25.3827695  82.4726198
  25.8683083  25.3511637  82.4056130  24.7152353  24.9218319  83.2876424
  25.5039211  23.9528811  85.0396996  26.3232100  24.4472890  85.0631833
  25.7776019  23.0360779  85.0114563  35.2605808  16.3439563  74.4024951
  34.3731663  16.6289214  74.1845146  35.6759797  16.1833327  73.5552228
  38.6120344  16.3686084  78.1179291  39.3880734  16.8582537  78.3903908
  37.8868478  16.7944139  78.5751160  41.0492902  17.0813704  79.1753231
  41.6437393  16.8409440  78.4646540  41.1219486  16.3620834  79.8026768
  23.2690058  30.9247315  79.4896396  23.1344526  30.1647715  78.9234394
  22.8522120  31.6488214  79.0225185  35.2346831  21.8594099  74.6175242
  35.1782033  22.3162651  73.7782874  35.7875174  21.0984784  74.4398084
  39.0451637  17.6483831  75.4425361  38.7888572  17.2480467  76.2733569
  38.4204505  18.3627625  75.3175500  43.3563975  20.3879904  77.9496653
  42.7963533  20.4573094  78.7228215  42.7507479  20.2120889  77.2296149
  26.4259184  31.8216632  79.7014839  26.3091568  32.7662064  79.5993529
  25.6051630  31.5190193  80.0900638  36.3135719  26.5466767  70.5471431
  37.1481322  26.1147966  70.3648906  36.1520061  26.3748781  71.4748326
  35.9681611  23.0498881  71.9127771  35.9130414  22.8843152  70.9716215
  35.3427666  23.7574914  72.0689960  33.2827518  25.3547792  91.2381334
  34.1518678  25.5288445  90.8767968  32.8034269  26.1742209  91.1157063
  29.2777736  12.5506990  71.4913089  29.2656406  13.4948830  71.6481360
  30.1701158  12.3677135  71.1972550  27.4513698  32.4744893  82.9170767
  28.3540945  32.5068504  83.2337262  27.2251068  31.5445344  82.9317103
  29.2067300  31.2275880  79.5780846  28.2562931  31.2277742  79.4645218
  29.5099786  30.4808615  79.0616880  33.0929856   9.1449766  75.7459026
  32.3262251   8.5908253  75.8915708  33.5040561   9.2171635  76.6073178
  44.9419994  37.0636418  80.6426608  45.5798404  36.9443166  79.9389948
  44.8240836  38.0117262  80.7014560  41.7509700  37.0163847  80.5788133
  41.4128211  36.9004911  79.6908668  42.6199468  36.6155012  80.5589139
  37.6096516  38.8699323  76.5685024  37.0461381  38.7789260  75.8001312
  37.4948911  38.0499227  77.0487516  42.2329483  38.1698698  86.5374338
  42.2218124  37.7751497  85.6654842  42.3950122  37.4364771  87.1308110
  35.1560948  40.3650515  79.4069244  35.9482239  40.0241339  78.9915544
  35.3957598  40.4745490  80.3271398  43.1896074  42.5370291  71.8799489
  42.5384054  43.1224371  71.4933503  43.9840437  43.0676486  71.9394526
  37.1151701  39.6259428  72.2786623  37.8882577  39.0788415  72.1399499
  37.4677100  40.4903677  72.4901085  38.9536744  40.9535810  85.4853522
  38.6626610  41.8581441  85.3700189  39.5893728  40.9952338  86.1997592
  39.8792951  38.3312659  82.0754882  40.4756523  38.1068681  81.3611845
  39.9367922  37.5897404  82.6780330  39.4517979  35.7852094  69.9105073
  39.7043500  35.2633615  69.1488536  38.5142538  35.6218239  70.0131757
  44.4961262  34.7887872  77.7179816  45.2824351  34.3707295  77.3670233
  44.7599966  35.6933964  77.8861465  44.6671339  40.2260723  72.4168473
  44.0317172  40.2995349  73.1289378  44.3368746  40.8154321  71.7387552
  49.8969689  34.7263105  78.6212795  50.6294861  34.1562322  78.8550624
  49.1409045  34.3384706  79.0619300  39.1714268  37.6880200  72.1129448
  39.0550526  37.0125103  72.7810532  39.2816528  37.2012574  71.2961601
  41.5145809  37.1490347  75.8176137  41.1504016  36.6220968  76.5289059
  42.3712925  36.7588816  75.6442623  47.4195110  28.4384680  83.0807403
  47.0878434  29.3080091  82.8568618  46.8240723  28.1220964  83.7601434
  41.1551296  32.1780247  70.8137486  41.3225698  33.0460483  71.1807957
  40.9648465  32.3407528  69.8898775  43.9126629  40.6397226  82.4803316
  43.6127352  41.5422264  82.3719123  43.5677689  40.3729409  83.3324469
  37.3639111  37.0911022  78.5140021  36.4389607  36.9587237  78.7217712
  37.6123524  37.8705242  79.0109963  47.3123773  33.1579766  80.1600753
  46.4040650  33.0895174  79.8659514  47.2611369  33.6351711  80.9882579
  41.1340517  34.6337904  71.7984153  41.0140142  35.0794955  72.6369633
  40.4393105  34.9823222  71.2397691  34.7247922  36.7344296  79.3483810
  34.8540303  36.9878775  80.2623221  34.0445373  37.3272004  79.0288465
  38.8947409  47.4041546  75.4474284  38.8171439  48.3549371  75.5262764
  38.2909052  47.0587418  76.1049210  41.3864639  34.5769411  88.1035651
  40.6097973  35.1363331  88.0938515  42.0255202  35.0626194  88.6250521
  49.1785419  31.3596204  81.9378627  48.5359800  31.6528737  81.2918422
  48.6740348  31.2449124  82.7431824  46.8325583  35.1059377  72.6264487
  47.7443439  35.3386764  72.4512184  46.3235230  35.6896422  72.0639565
  39.6411011  37.3854865  87.6653618  40.3825695  37.9239909  87.3888441
  38.9347996  38.0121153  87.8225170  45.1166351  39.5284005  86.2625779
  45.5249707  39.0866416  85.5180412  44.3943612  38.9536633  86.5159972
  41.4697421  34.4656612  83.6359336  42.3158616  34.8896025  83.7793985
  41.4096058  33.8090236  84.3297899  45.4395165  40.0885196  80.0178068
  44.8104028  40.2530910  79.3154136  45.0520827  40.5026805  80.7889032
  49.3184397  41.0239634  77.3722432  48.6335435  41.4038535  76.8219465
  49.4028246  41.6334960  78.1054380  44.6196866  32.1260980  85.2940510
  44.3757798  32.8803041  84.7574785  44.8956797  32.5046328  86.1287757
  46.5735329  38.6699593  83.9717775  46.7852224  39.3131353  83.2952156
  46.5265077  37.8361909  83.5039705  44.1761558  31.2817413  80.8754348
  43.3146037  31.5798667  81.1671085  44.2023992  31.4987812  79.9435380
  40.9923127  39.8259604  77.2828153  41.4561473  40.1047307  76.4932776
  40.7279925  38.9243048  77.1001244  37.8847208  39.3731085  80.2207916
  38.4548565  39.8018354  79.5825401  38.4755320  39.0913670  80.9192102
  39.9292013  35.9482756  74.0917718  40.6316057  36.4003800  74.5591645
  39.5972642  35.3066575  74.7197611  38.3772375  34.5394513  88.4668928
  37.7471035  35.2210794  88.7004325  38.2708463  34.4277594  87.5222066
  33.6717347  34.2066309  79.3934852  32.8816401  34.4623837  78.9174963
  34.1628595  35.0214647  79.4986892  47.6881157  41.5471548  82.1440133
  48.5098600  41.1451735  81.8622814  47.6843560  41.4439782  83.0956249
  35.6232093  34.5710888  76.3518329  34.8263256  34.6829582  76.8701824
  35.3957685  34.9097540  75.4859219  41.4537760  41.0955591  84.3000843
  41.5182193  41.5575999  85.1359015  40.7448684  40.4652956  84.4283153
  31.9555050  34.4596799  81.8249843  32.2063089  35.3443809  82.0907419
  32.4914599  34.2801401  81.0524935  55.7787150  37.8910297  78.4925104
  55.0250858  37.3217695  78.3369109  55.9134691  37.8572961  79.4395739
  41.1685778  42.7623699  74.1679824  41.0331453  43.6075235  74.5964671
  41.7095590  42.9642977  73.4045757  37.6553117  28.8415279  90.8294179
  37.2620063  28.2881477  91.5041823  38.4719258  29.1525857  91.2200696
  34.6215175  40.2799137  74.7407749  35.1339696  41.0742387  74.8913313
  35.2737888  39.5825427  74.6741350  36.4310060  43.3964893  76.8230502
  36.6076688  44.3182858  76.6351486  37.2266893  43.0823312  77.2524882
  40.5721078  30.2573158  88.4214435  41.3130792  30.8580311  88.3418898
  40.8039001  29.5150796  87.8632478  35.7162416  35.4429525  86.6992665
  35.6015932  34.5414782  86.9999764  34.8606934  35.6893222  86.3477482
  42.7954254  43.3847265  88.2980166  42.3518108  42.5983644  87.9801070
  43.4571468  43.5726416  87.6324056  37.5541375  44.9143067  82.8240844
  38.1048800  44.7860130  82.0517838  36.7152851  45.2137956  82.4735737
  44.8935492  43.6650065  86.3261567  44.8753968  44.4858946  85.8341836
  45.8155412  43.5404141  86.5511708  41.3508546  41.1794195  87.1685075
  41.8836883  40.4182483  86.9384383  40.8222628  40.8867847  87.9109230
  44.5178241  26.2854261  82.6978717  44.1742511  27.1755902  82.6217828
  44.8857204  26.0955918  81.8348302  32.5864092  38.6087791  75.5167319
  33.4239314  39.0184800  75.3001027  32.7642360  37.6687233  75.4867513
  42.0675635  31.1212573  76.2636391  41.2117231  30.7319423  76.0842029
  42.4802587  31.2004533  75.4036176  43.5974782  28.6558916  80.6627950
  43.0939577  28.6189051  79.8495756  43.8905389  29.5651659  80.7224607
  39.8417668  28.7397646  79.6694132  40.7070664  28.5440454  79.3100021
  39.9095177  28.5107997  80.5963489  49.4562798  39.0295226  73.1404326
  48.6792241  38.6906386  72.6959488  50.1354279  39.0347850  72.4659291
  44.2714827  34.1489964  73.0310933  43.9664963  34.4636113  73.8821076
  45.2245269  34.2271384  73.0738266  42.7161259  40.3080187  74.6803887
  42.1882621  39.5732947  74.3677125  42.2148762  41.0854864  74.4343856
  47.6954105  38.5029208  79.7970934  47.0377780  39.1928469  79.8851062
  48.4994504  38.8925640  80.1404920  37.4479987  30.9699854  77.0410499
  38.0223739  30.7475035  76.3083692  38.0350969  31.0388548  77.7939100
  46.5059564  36.8573580  77.8474875  47.0191446  37.4903572  78.3496585
  47.1560788  36.2574776  77.4818235  37.7749574  33.0004315  71.0606384
  36.9386886  33.3379001  71.3815659  37.6354343  32.8653294  70.1233521
  39.7502654  27.8441102  75.7685568  39.0967067  27.5290120  75.1442183
  39.7083129  27.2216843  76.4945391  43.7681938  46.8357905  70.6035546
  43.0943637  47.1389601  71.2120504  44.1547760  47.6386985  70.2541004
  42.9840395  34.3323036  80.0933216  42.0662956  34.5537983  79.9354904
  43.4000538  34.4069346  79.2344923  43.7675443  35.7314452  75.2235896
  44.5147262  36.2435849  74.9143018  44.0367032  35.4098504  76.0840290
  42.0402093  38.2272992  72.2062850  41.1313312  37.9432025  72.3035320
  42.0697177  38.6472071  71.3466157  47.2721360  41.8379582  75.9754018
  46.8183687  40.9970492  76.0319208  46.6415327  42.4740980  76.3128798
  46.2154280  32.7671568  77.2054685  45.4777037  32.2548954  77.5364928
  46.4681053  32.3271950  76.3937962  45.7154299  43.6756079  76.9103836
  46.0077274  44.2361136  76.1916202  46.2252920  43.9684640  77.6656995
  46.3165907  25.5447820  77.7996455  46.6224784  24.6845183  77.5122370
  47.0418512  26.1365440  77.5995449  32.6090263  35.9478507  76.1878053
  32.4114663  35.3547867  75.4629119  32.0536927  35.6430717  76.9053991
  40.5886987  35.8401613  78.3072646  40.6435597  34.8875449  78.2315122
  39.7778189  35.9961052  78.7913944  38.5279347  34.4578673  76.0663025
  37.7147212  34.7572843  76.4728217  39.0238341  34.0634362  76.7837507
  40.6787925  44.4536430  77.9997289  40.6364103  44.6797276  77.0705821
  41.5950623  44.2199804  78.1483090  44.1253558  34.9220497  84.8977919
  44.4802946  35.1491970  85.7572384  44.7725690  35.2538874  84.2755174
  49.8551295  38.0438933  75.6027248  49.7169194  38.2340529  74.6748437
  49.4987514  38.8058316  76.0595299  38.0193421  32.0297028  81.6824260
  38.6592801  31.8885787  80.9847223  37.1870952  31.7431542  81.3062862
  49.8820675  40.1115460  80.6138519  50.3157182  40.0190749  81.4621573
  50.5952256  40.0872961  79.9758535  38.7953725  41.3299459  77.7959252
  39.5894324  40.8349779  77.5941827  38.0845418  40.8017322  77.4326958
  43.6148570  43.7117554  82.1471620  43.6685592  44.2808491  82.9149336
  42.7463351  43.8819439  81.7825657  35.1036489  35.4742540  73.8719005
  34.1734077  35.4126996  74.0888967  35.1993961  34.9518493  73.0755646
  35.0222038  31.9997353  76.4597246  35.2828855  32.9142686  76.3506407
  35.8439210  31.5321796  76.6093859  36.4946963  33.4135110  83.6296071
  37.1670017  33.2052473  82.9808720  35.6676750  33.2157196  83.1901303
  50.7436225  40.1539161  83.1471404  50.9372115  41.0584971  83.3930679
  50.6436843  39.6946580  83.9809989  42.3972535  30.0397051  85.6461732
  41.7500450  30.7387001  85.5526208  43.1673551  30.4733195  86.0137980
  45.8051333  40.3045904  88.7212285  45.6536840  40.0756455  87.8042369
  45.7956013  41.2616505  88.7343630  42.5736670  37.8777816  83.7058552
  43.5028730  38.0288976  83.5327519  42.1527700  37.9661837  82.8507198
  41.3725001  41.9028481  81.4757089  41.2336087  41.5347265  82.3483027
  40.5839598  42.4176120  81.3041047  41.9673153  47.0037577  72.8182626
  42.1424909  46.5325620  73.6328248  41.2805941  47.6303343  73.0463886
  42.9230217  41.2810083  78.8645927  42.5880049  41.2410853  79.7603577
  42.4234162  40.6154799  78.3916337  36.8974460  36.6877713  84.3898508
  36.7594258  35.9557952  84.9910047  37.8079384  36.5986613  84.1082696
  39.5256761  36.3997673  83.8782188  40.2356380  35.7590865  83.8368806
  39.4826069  36.6510568  84.8008368  47.5143540  43.3365026  86.7988767
  47.4556086  42.6524246  86.1319350  47.9163058  44.0784016  86.3469393
  38.2385695  33.3862891  85.6977827  37.7023052  32.9353629  86.3499424
  37.6502404  33.5208799  84.9548292  36.5334239  50.1526940  79.5922486
  36.7730837  50.7845464  80.2701504  35.6903435  49.8014980  79.8787845
  37.6487954  32.8451542  68.2604291  36.7717420  32.7240343  67.8966538
  38.1245707  32.0537620  68.0083180  47.5160947  41.3004610  85.0302747
  46.6287726  40.9630532  85.1529145  48.0859498  40.5687641  85.2671512
  29.1690094  37.6328702  78.3545798  29.8561134  37.3190432  77.7666813
  29.0138223  38.5370066  78.0813049  33.9724816  32.5218898  82.7830822
  33.8883005  31.9144568  82.0481232  33.1507523  33.0127917  82.7840318
  41.0462100  45.9606062  81.9963990  40.9732272  46.7661034  82.5083294
  40.6039494  46.1598028  81.1712011  40.8351880  45.1977832  75.5066811
  40.0519402  45.7399513  75.6005036  41.5344625  45.7151812  75.9061053
  44.1448530  31.0072462  78.1501017  44.6417230  30.2542424  77.8302087
  43.3735512  31.0436778  77.5844226  51.9978288  36.7112827  79.7919308
  51.9868164  37.5937543  79.4213241  51.1295667  36.3584378  79.5973845
  43.5060784  45.8592896  84.1522148  44.2188756  46.4940361  84.0798050
  43.0150813  45.9556762  83.3362150  45.2278311  39.7644149  75.7239440
  44.2934590  39.8845612  75.5544144  45.4054979  38.8616616  75.4599450
  40.7283499  33.1489845  77.8772701  40.3581286  32.5960885  78.5653607
  41.2242591  32.5447978  77.3247701  48.6150862  35.6061468  76.2589474
  49.0811314  36.4389460  76.1849777  49.0658363  35.1406450  76.9634733
  38.5572698  43.6087340  84.9727719  39.2582157  44.2423823  85.1257114
  38.0867813  43.9502071  84.2123359  46.6827093  41.9505290  73.2575626
  46.9586937  41.8361884  74.1669500  45.8131592  41.5522774  73.2187799
  46.5867525  27.9742055  80.2980376  45.6730605  28.2046282  80.4662583
  47.0160626  28.0580499  81.1494408  46.3573984  36.1631947  82.7980270
  45.7045434  36.4107855  82.1432722  46.7354363  35.3496085  82.4642747
  43.3181157  46.1991640  76.9008440  43.5003552  45.3813296  77.3636192
  44.1414143  46.4159333  76.4633330  43.6523323  45.1259826  74.1623488
  44.1811089  44.6152280  73.5493651  43.9151542  44.8102356  75.0269021
  42.4061557  36.9051758  89.2846307  41.7302194  36.8045888  89.9548682
  43.2289190  36.7490972  89.7482304  34.1540416  43.1423695  81.9058822
  34.7393852  42.3967383  82.0386726  33.9565254  43.4527652  82.7895486
  37.0079071  46.1774942  76.9221264  36.3389446  46.6621070  76.4385304
  36.8691941  46.4244163  77.8364643  28.7458070  35.7129295  80.6263265
  28.7842170  35.1792886  81.4200383  28.2398363  35.1864501  80.0074242
  41.1484339  48.2118686  83.5203923  41.7002647  48.3750307  84.2853008
  41.4890533  48.8023124  82.8483948  36.1248833  30.5593836  84.1225807
  36.1890159  31.4208667  83.7103205  36.0615953  29.9467837  83.3898166
  35.6001105  32.6316968  87.7698842  36.2273144  32.2494045  88.3836366
  34.7429024  32.4131170  88.1354534  45.9995214  43.0379943  89.3752577
  46.5435118  43.6509902  88.8807532  45.4182059  43.5959522  89.8919590
  32.3766648  34.4393397  73.7017197  32.6720089  33.5304076  73.6484250
  31.4754684  34.4181137  73.3798199  44.2852727  46.1600661  80.5067605
  44.1603866  45.3590401  79.9978550  44.9431818  46.6546855  80.0181575
  35.9060895  32.5149394  79.6844745  35.1847481  33.1285362  79.5452218
  36.6954151  33.0507159  79.6061391  46.3487635  43.9609681  82.1347155
  45.4017971  43.8415033  82.0625482  46.6970408  43.0732179  82.2173416
  38.7087208  29.8503820  85.9585397  39.2321610  30.0966117  86.7211706
  38.4899542  30.6823855  85.5388534  34.1054490  32.1207495  73.8256522
  33.7767196  31.2404874  73.6431628  34.4593860  32.0655164  74.7132911
  43.3534068  43.7562398  78.3351507  43.2059031  42.8279105  78.5159077
  44.1787562  43.7782488  77.8508582  37.2196313  32.4080465  74.1931999
  37.5592385  32.9366386  73.4710608  37.6668433  32.7460871  74.9690566
  46.9568190  44.5790956  79.4216380  47.8814738  44.3733818  79.2840831
  46.7883494  44.3307358  80.3305721  39.9139753  30.7917515  83.6435067
  39.5736574  29.9925328  84.0455747  39.2078760  31.0919226  83.0711901
  40.5656225  27.8766828  82.0962390  41.3882295  27.4027306  81.9741281
  40.8094289  28.6557312  82.5961077  39.2064460  30.9055086  72.3925292
  39.9272822  31.2836339  71.8889009  38.5829764  31.6243963  72.4960270
  43.3495583  31.6100235  73.3283624  43.5659197  32.4924873  73.0272453
  42.8689650  31.2186449  72.5989266  38.0894804  34.5685948  79.9054369
  37.9439385  34.8826252  80.7978651  37.6120008  35.1870849  79.3525268
  39.9491187  31.5588496  79.9535259  39.9352756  30.6629590  79.6167557
  40.6663615  31.5659160  80.5873545  41.8017318  31.9925837  81.9988386
  41.5435095  32.9142907  81.9972716  41.2702358  31.5956271  82.6888850
  46.7463506  45.0976624  74.7778471  46.9200384  44.5323046  74.0252324
  47.2392398  45.8977519  74.5957961  32.5640466  37.1091293  82.8442030
  32.0193934  37.8851101  82.9762305  33.4419816  37.4562097  82.6861152
  39.3528083  30.4402877  75.2222829  39.4743994  29.5119523  75.4213716
  39.0630125  30.4541563  74.3101144  42.2219273  28.1257787  78.3589549
  42.2440970  28.1897120  77.4041528  42.6387332  27.2862296  78.5530055
  52.6002898  37.8613047  76.3968771  53.0434044  37.1120372  75.9987894
  51.7229408  37.8523183  76.0142503  47.7338679  44.4143388  71.8775370
  48.4289584  45.0350081  72.0962684  48.0761829  43.5638739  72.1527748
  33.3506488  36.2361189  85.7372187  32.6088224  36.3843825  86.3236817
  33.0299232  36.4969455  84.8738936  49.6330102  41.8643094  73.4062700
  50.1581426  42.2030366  72.6812020  49.5452455  40.9290109  73.2225835
  41.2950151  45.7777167  85.5352577  41.6037277  45.5326314  86.4075277
  42.0925633  45.9823806  85.0471447  41.3170763  47.9315077  77.7657954
  40.8775753  47.4391456  78.4590810  42.0678880  47.3888045  77.5250029
  33.7963102  44.1226618  77.7682582  34.6221122  43.8230390  77.3881225
  33.4457154  43.3534240  78.2172370  38.7644635  43.4753086  79.8380255
  38.1424644  42.8123791  79.5382483  39.4349502  43.5014218  79.1553903
  31.9971707  42.0412944  78.7271515  31.1603615  41.6135119  78.5455517
  31.9695352  42.2345388  79.6642306  38.8369162  31.9534874  89.4312761
  38.8857318  32.8296997  89.0490531  39.3791677  31.4112267  88.8584405
  49.3224008  42.4975997  88.7113898  48.5319552  42.4800136  88.1718398
  49.0857363  43.0364291  89.4662935  49.4421883  39.3468464  86.0246627
  49.4919888  39.1818471  86.9662150  49.3335806  38.4795723  85.6344508
  38.3258142  42.0257009  73.3138716  38.4746262  42.7092474  72.6605389
  39.1324585  42.0062100  73.8288172  46.7325646  35.3299392  87.3405934
  47.6335508  35.1905857  87.0489931  46.8073620  35.4953847  88.2804111
  41.0668451  32.7066247  86.1859120  40.1971760  32.9999813  85.9141709
  41.3027931  33.2906692  86.9066384  50.9440080  41.7665405  86.2688648
  50.6524888  42.1295386  87.1052109  50.3312211  41.0532414  86.0901981
  52.1435762  39.3318285  78.7891219  52.9782654  39.7708089  78.9528779
  52.2794891  38.8556938  77.9699464  49.1927268  36.8898020  84.7368706
  49.6681390  37.0825666  83.9287558  48.2692834  36.9457206  84.4912090
  36.0810775  38.0522187  74.3199785  35.8356817  37.1484517  74.5179995
  36.2506689  38.0539338  73.3779263  43.7707485  28.9245863  83.7024540
  44.2889429  29.6606890  83.3771029  43.4162617  29.2309857  84.5371299
  35.3506422  33.7850545  71.8185946  34.6575667  33.8594900  71.1625982
  35.1058174  33.0210888  72.3407463  44.0220079  25.3446146  79.2225437
  44.3021833  24.6769335  79.8485863  44.8070686  25.5375242  78.7100101
  41.8253547  44.5205140  70.7850463  41.2527514  45.1395327  70.3320935
  42.3986341  45.0704502  71.3190385  47.8928937  33.7663780  82.9697012
  48.8446360  33.8661878  82.9909236  47.7232388  32.9742049  83.4795096
  45.9143317  30.8519363  83.1556413  45.3193249  31.1324376  82.4602902
  45.6293013  31.3413264  83.9273154  45.0450807  44.8042290  71.9159046
  45.9781480  44.7387852  72.1191921  44.9574020  45.6398557  71.4573578
  47.6738824  44.1208160  68.8762993  47.5952455  43.7868024  69.7698751
  48.4948491  44.6129928  68.8754465  50.3717015  36.9869900  82.0839312
  50.3393335  36.0485900  82.2698996  50.9817639  37.0653936  81.3505137
  42.2100346  35.8565953  68.1266516  43.1559451  35.7272161  68.1954934
  41.8314591  35.1180615  68.6035944  50.5211503  33.7780943  82.1297595
  50.0050552  32.9939400  81.9427524  51.4051452  33.4499660  82.2944114
  48.1822230  27.5221959  78.0893408  47.9847052  27.2137047  78.9736740
  48.7921936  28.2483598  78.2191337  56.1893565  38.0485907  81.2245349
  56.9196953  37.7871195  81.7853052  55.5800510  37.3114628  81.2647416
  54.2708862  36.1893769  81.8219800  53.5442026  36.0549734  81.2136291
  53.8556149  36.4970598  82.6276518  42.0939038  39.9083699  89.5867173
  43.0142048  40.0862298  89.7807219  42.0588621  38.9639744  89.4346872
  40.3943263  33.7815929  68.0621401  39.4874718  33.4849042  68.1384115
  40.6719244  33.4845747  67.1955687  31.3121203  35.1022292  78.5120447
  30.9923988  34.2487601  78.2194821  30.7654632  35.3170871  79.2678415
  35.0901111  37.8184733  82.2289954  35.3087121  38.7501841  82.2477988
  35.5026885  37.4592708  83.0144758  42.0105329  28.3252819  74.2165642
  41.2006057  27.9799904  74.5920888  42.6989746  28.0160362  74.8053254
  43.9395877  27.4030866  75.8389939  44.4926916  27.8226319  76.4979962
  44.1765963  26.4766614  75.8812895  39.9628976  33.3917939  91.6192703
  39.8625703  34.3412296  91.5504794  39.7450518  33.0636178  90.7468773
  39.1642048  30.6402864  68.2033380  40.0261212  30.9657763  68.4629198
  39.3492392  29.8534360  67.6906446  31.1809463  38.7225204  80.4813569
  30.4872935  38.3079157  79.9683523  31.9282454  38.7645740  79.8846988
  47.3174684  29.5131391  75.3468603  46.7373353  30.1716195  74.9646656
  47.0510617  28.6908735  74.9356021  45.7678250  28.9136448  77.5489924
  46.2678029  29.0252983  76.7404242  46.4113858  28.6097501  78.1890732
  39.8260246  36.8215078  90.4357764  39.3427328  37.6215438  90.6421654
  39.9121185  36.8323023  89.4825208  33.0946206  38.6543458  78.3579584
  33.0716894  38.7531145  77.4061467  33.4046842  39.5008609  78.6796750
  35.7533584  40.7119613  82.4726198  36.7076837  40.6803555  82.4056130
  35.5546107  40.2510236  83.2876424  36.3432966  39.2820729  85.0396996
  37.1625855  39.7764807  85.0631833  36.6169774  38.3652697  85.0114563
  46.0999562  31.6731481  74.4024951  45.2125417  31.9581132  74.1845146
  46.5153551  31.5125244  73.5552228  49.4514098  31.6978002  78.1179291
  50.2274488  32.1874455  78.3903908  48.7262232  32.1236056  78.5751160
  51.8886657  32.4105621  79.1753231  52.4831148  32.1701357  78.4646540
  51.9613241  31.6912752  79.8026768  34.1083813  46.2539232  79.4896396
  33.9738281  45.4939633  78.9234394  33.6915875  46.9780132  79.0225185
  46.0740586  37.1886017  74.6175242  46.0175787  37.6454568  73.7782874
  46.6268928  36.4276702  74.4398084  49.8845392  32.9775749  75.4425361
  49.6282326  32.5772385  76.2733569  49.2598260  33.6919543  75.3175500
  54.1957730  35.7171822  77.9496653  53.6357288  35.7865011  78.7228215
  53.5901233  35.5412807  77.2296149  37.2652938  47.1508549  79.7014839
  37.1485323  48.0953982  79.5993529  36.4445385  46.8482111  80.0900638
  47.1529473  41.8758685  70.5471431  47.9875077  41.4439883  70.3648906
  46.9913816  41.7040699  71.4748326  46.8075365  38.3790798  71.9127771
  46.7524169  38.2135070  70.9716215  46.1821420  39.0866831  72.0689960
  31.5967880  33.6158863  85.7389193  32.2426744  33.1057817  86.2276418
  31.3885031  34.3527544  86.3132618  44.1221272  40.6839710  91.2381334
  44.9912432  40.8580362  90.8767968  43.6428024  41.5034127  91.1157063
  40.1171491  27.8798907  71.4913089  40.1050160  28.8240747  71.6481360
  41.0094913  27.6969053  71.1972550  38.2907453  47.8036811  82.9170767
  39.1934699  47.8360421  83.2337262  38.0644823  46.8737262  82.9317103
  40.0461055  46.5567798  79.5780846  39.0956686  46.5569659  79.4645218
  40.3493541  45.8100532  79.0616880  43.9323610  24.4741684  75.7459026
  43.1656006  23.9200171  75.8915708  44.3434315  24.5463553  76.6073178
  35.9365371  30.7626480  89.8364207  36.7996833  30.4063285  90.0467532
  35.3630782  30.4240375  90.5239611  55.7813748  52.3928336  80.6426608
  56.4192158  52.2735083  79.9389948  55.6634591  53.3409180  80.7014560
  52.5903454  52.3455764  80.5788133  52.2521966  52.2296829  79.6908668
  53.4593223  51.9446929  80.5589139  48.4490270  54.1991241  76.5685024
  47.8855135  54.1081178  75.8001312  48.3342665  53.3791145  77.0487516
  53.0723237  53.4990616  86.5374338  53.0611878  53.1043414  85.6654842
  53.2343877  52.7656689  87.1308110  45.9954702  55.6942432  79.4069244
  46.7875994  55.3533257  78.9915544  46.2351352  55.8037407  80.3271398
  54.0289829  57.8662208  71.8799489  53.3777809  58.4516289  71.4933503
  54.8234192  58.3968403  71.9394526  47.9545456  54.9551345  72.2786623
  48.7276332  54.4080333  72.1399499  48.3070855  55.8195595  72.4901085
  49.7930499  56.2827728  85.4853522  49.5020364  57.1873359  85.3700189
  50.4287483  56.3244255  86.1997592  50.7186705  53.6604576  82.0754882
  51.3150278  53.4360599  81.3611845  50.7761677  52.9189322  82.6780330
  50.2911734  51.1144012  69.9105073  50.5437254  50.5925533  69.1488536
  49.3536293  50.9510157  70.0131757  55.3355017  50.1179790  77.7179816
  56.1218106  49.6999213  77.3670233  55.5993721  51.0225882  77.8861465
  55.5065094  55.5552640  72.4168473  54.8710927  55.6287267  73.1289378
  55.1762500  56.1446239  71.7387552  60.7363444  50.0555023  78.6212795
  61.4688616  49.4854240  78.8550624  59.9802799  49.6676624  79.0619300
  50.0108023  53.0172118  72.1129448  49.8944281  52.3417021  72.7810532
  50.1210282  52.5304491  71.2961601  52.3539563  52.4782265  75.8176137
  51.9897771  51.9512886  76.5289059  53.2106679  52.0880734  75.6442623
  58.2588864  43.7676597  83.0807403  57.9272189  44.6372008  82.8568618
  57.6634477  43.4512881  83.7601434  51.9945050  47.5072164  70.8137486
  52.1619453  48.3752401  71.1807957  51.8042219  47.6699446  69.8898775
  54.7520384  55.9689143  82.4803316  54.4521107  56.8714182  82.3719123
  54.4071443  55.7021326  83.3324469  48.2032865  52.4202940  78.5140021
  47.2783362  52.2879154  78.7217712  48.4517278  53.1997159  79.0109963
  58.1517527  48.4871683  80.1600753  57.2434405  48.4187092  79.8659514
  58.1005123  48.9643628  80.9882579  51.9734271  49.9629822  71.7984153
  51.8533896  50.4086873  72.6369633  51.2786860  50.3115140  71.2397691
  45.5641676  52.0636214  79.3483810  45.6934057  52.3170693  80.2623221
  44.8839127  52.6563922  79.0288465  52.2258393  49.9061329  88.1035651
  51.4491727  50.4655249  88.0938515  52.8648956  50.3918112  88.6250521
  60.0179174  46.6888122  81.9378627  59.3753554  46.9820655  81.2918422
  59.5134102  46.5741042  82.7431824  57.6719337  50.4351295  72.6264487
  58.5837194  50.6678682  72.4512184  57.1628985  51.0188339  72.0639565
  50.4804765  52.7146782  87.6653618  51.2219450  53.2531826  87.3888441
  49.7741751  53.3413071  87.8225170  55.9560105  54.8575923  86.2625779
  56.3643461  54.4158333  85.5180412  55.2337367  54.2828550  86.5159972
  52.3091175  49.7948530  83.6359336  53.1552370  50.2187943  83.7793985
  52.2489813  49.1382154  84.3297899  56.2788920  55.4177113  80.0178068
  55.6497782  55.5822828  79.3154136  55.8914582  55.8318723  80.7889032
  60.1578152  56.3531551  77.3722432  59.4729190  56.7330453  76.8219465
  60.2422001  56.9626878  78.1054380  55.4590620  47.4552898  85.2940510
  55.2151552  48.2094958  84.7574785  55.7350551  47.8338246  86.1287757
  57.4129083  53.9991510  83.9717775  57.6245978  54.6423270  83.2952156
  57.3658832  53.1653827  83.5039705  55.0155312  46.6109331  80.8754348
  54.1539791  46.9090585  81.1671085  55.0417747  46.8279730  79.9435380
  51.8316882  55.1551522  77.2828153  52.2955227  55.4339225  76.4932776
  51.5673680  54.2534966  77.1001244  48.7240963  54.7023003  80.2207916
  49.2942320  55.1310271  79.5825401  49.3149075  54.4205588  80.9192102
  50.7685768  51.2774674  74.0917718  51.4709811  51.7295718  74.5591645
  50.4366396  50.6358493  74.7197611  49.2166129  49.8686431  88.4668928
  48.5864790  50.5502711  88.7004325  49.1102217  49.7569512  87.5222066
  44.5111102  49.5358227  79.3934852  43.7210156  49.7915755  78.9174963
  45.0022349  50.3506564  79.4986892  58.5274911  56.8763466  82.1440133
  59.3492355  56.4743653  81.8622814  58.5237314  56.7731700  83.0956249
  46.4625847  49.9002806  76.3518329  45.6657010  50.0121500  76.8701824
  46.2351439  50.2389458  75.4859219  52.2931515  56.4247509  84.3000843
  52.3575947  56.8867916  85.1359015  51.5842439  55.7944874  84.4283153
  42.7948805  49.7888717  81.8249843  43.0456843  50.6735727  82.0907419
  43.3308353  49.6093319  81.0524935  66.6180904  53.2202214  78.4925104
  65.8644613  52.6509612  78.3369109  66.7528445  53.1864879  79.4395739
  48.4946872  44.1707196  90.8294179  48.1013818  43.6173395  91.5041823
  49.3113012  44.4817775  91.2200696  45.4608930  55.6091055  74.7407749
  45.9733450  56.4034305  74.8913313  46.1131643  54.9117345  74.6741350
  47.2703814  58.7256811  76.8230502  47.4470443  59.6474776  76.6351486
  48.0660648  58.4115230  77.2524882  51.4114833  45.5865075  88.4214435
  52.1524546  46.1872229  88.3418898  51.6432756  44.8442713  87.8632478
  46.5556171  50.7721443  86.6992665  46.4409686  49.8706700  86.9999764
  45.7000689  51.0185139  86.3477482  53.6348009  58.7139183  88.2980166
  53.1911863  57.9275562  87.9801070  54.2965222  58.9018334  87.6324056
  48.3935130  60.2434985  82.8240844  48.9442555  60.1152048  82.0517838
  47.5546606  60.5429874  82.4735737  55.7329247  58.9941983  86.3261567
  55.7147722  59.8150864  85.8341836  56.6549167  58.8696058  86.5511708
  52.1902301  56.5086112  87.1685075  52.7230638  55.7474401  86.9384383
  51.6616382  56.2159764  87.9109230  55.3571996  41.6146178  82.6978717
  55.0136265  42.5047820  82.6217828  55.7250958  41.4247836  81.8348302
  43.4257846  53.9379709  75.5167319  44.2633068  54.3476717  75.3001027
  43.6036114  52.9979151  75.4867513  55.3222279  51.6054790  71.2051152
  54.8068902  52.3759394  71.4439540  55.0499587  50.9319926  71.8284214
  52.9069390  46.4504490  76.2636391  52.0510986  46.0611341  76.0842029
  53.3196341  46.5296451  75.4036176  54.4368536  43.9850834  80.6627950
  53.9333332  43.9480969  79.8495756  54.7299143  44.8943576  80.7224607
  50.6811422  44.0689563  79.6694132  51.5464419  43.8732372  79.3100021
  50.7488931  43.8399915  80.5963489  60.2956553  54.3587144  73.1404326
  59.5185995  54.0198304  72.6959488  60.9748034  54.3639767  72.4659291
  55.1108582  49.4781882  73.0310933  54.8058717  49.7928031  73.8821076
  56.0639024  49.5563302  73.0738266  53.5555014  55.6372105  74.6803887
  53.0276375  54.9024865  74.3677125  53.0542516  56.4146781  74.4343856
  58.5347860  53.8321125  79.7970934  57.8771534  54.5220387  79.8851062
  59.3388259  54.2217557  80.1404920  48.2873741  46.2991771  77.0410499
  48.8617493  46.0766953  76.3083692  48.8744724  46.3680466  77.7939100
  57.3453318  52.1865498  77.8474875  57.8585200  52.8195490  78.3496585
  57.9954542  51.5866694  77.4818235  48.6143328  48.3296232  71.0606384
  47.7780641  48.6670919  71.3815659  48.4748098  48.1945212  70.1233521
  50.5896409  43.1733020  75.7685568  49.9360821  42.8582037  75.1442183
  50.5476883  42.5508761  76.4945391  51.7007614  53.4552315  67.6838860
  50.7934676  53.2241569  67.8830009  52.1978646  52.6589934  67.8712842
  53.8234149  49.6614954  80.0933216  52.9056711  49.8829901  79.9354904
  54.2394293  49.7361264  79.2344923  54.6069197  51.0606369  75.2235896
  55.3541016  51.5727767  74.9143018  54.8760787  50.7390422  76.0840290
  52.8795847  53.5564910  72.2062850  51.9707066  53.2723943  72.3035320
  52.9090931  53.9763989  71.3466157  58.1115115  57.1671500  75.9754018
  57.6577442  56.3262409  76.0319208  57.4809081  57.8032898  76.3128798
  57.0548034  48.0963486  77.2054685  56.3170791  47.5840872  77.5364928
  57.3074808  47.6563867  76.3937962  56.5548054  59.0047996  76.9103836
  56.8471028  59.5653053  76.1916202  57.0646674  59.2976557  77.6656995
  57.1559662  40.8739738  77.7996455  57.4618538  40.0137101  77.5122370
  57.8812266  41.4657358  77.5995449  43.4484018  51.2770424  76.1878053
  43.2508417  50.6839785  75.4629119  42.8930682  50.9722634  76.9053991
  51.4280741  51.1693531  78.3072646  51.4829351  50.2167367  78.2315122
  50.6171943  51.3252970  78.7913944  52.5771935  55.0973654  69.5450929
  52.1391365  54.3809513  69.0856566  53.3182376  55.3249769  68.9836020
  49.3673101  49.7870590  76.0663025  48.5540967  50.0864761  76.4728217
  49.8632095  49.3926279  76.7837507  54.9647313  50.2512415  84.8977919
  55.3196701  50.4783888  85.7572384  55.6119444  50.5830792  84.2755174
  60.6945050  53.3730851  75.6027248  60.5562948  53.5632447  74.6748437
  60.3381269  54.1350234  76.0595299  48.8587176  47.3588946  81.6824260
  49.4986555  47.2177705  80.9847223  48.0264707  47.0723459  81.3062862
  60.7214429  55.4407378  80.6138519  61.1550936  55.3482667  81.4621573
  61.4346010  55.4164878  79.9758535  49.6347480  56.6591376  77.7959252
  50.4288078  56.1641696  77.5941827  48.9239172  56.1309239  77.4326958
  54.4542324  59.0409472  82.1471620  54.5079347  59.6100408  82.9149336
  53.5857106  59.2111357  81.7825657  45.9430243  50.8034458  73.8719005
  45.0127831  50.7418914  74.0888967  46.0387715  50.2810411  73.0755646
  45.8615792  47.3289271  76.4597246  46.1222610  48.2434604  76.3506407
  46.6832965  46.8613713  76.6093859  47.3340718  48.7427028  83.6296071
  48.0063771  48.5344390  82.9808720  46.5070504  48.5449114  83.1901303
  61.5829979  55.4831078  83.1471404  61.7765869  56.3876889  83.3930679
  61.4830597  55.0238498  83.9809989  53.2366290  45.3688969  85.6461732
  52.5894205  46.0678919  85.5526208  54.0067305  45.8025113  86.0137980
  56.6445088  55.6337821  88.7212285  56.4930594  55.4048373  87.8042369
  56.6349767  56.5908423  88.7343630  53.4130424  53.2069734  83.7058552
  54.3422484  53.3580894  83.5327519  52.9921454  53.2953755  82.8507198
  52.2118756  57.2320398  81.4757089  52.0729842  56.8639183  82.3483027
  51.4233352  57.7468038  81.3041047  53.7623971  56.6102001  78.8645927
  53.4273804  56.5702771  79.7603577  53.2627917  55.9446717  78.3916337
  47.7368215  52.0169631  84.3898508  47.5988013  51.2849870  84.9910047
  48.6473138  51.9278531  84.1082696  56.6983163  53.9558035  69.1382987
  56.0812333  53.2304864  69.0416039  56.2299651  54.7167396  68.7950061
  50.3650516  51.7289590  83.8782188  51.0750134  51.0882783  83.8368806
  50.3219824  51.9802485  84.8008368  58.3537294  58.6656944  86.7988767
  58.2949840  57.9816164  86.1319350  58.7556813  59.4075934  86.3469393
  49.0779450  48.7154808  85.6977827  48.5416807  48.2645547  86.3499424
  48.4896158  48.8500717  84.9548292  47.3727993  65.4818858  79.5922486
  47.6124591  66.1137382  80.2701504  46.5297190  65.1306898  79.8787845
  48.4881709  48.1743460  68.2604291  47.6111175  48.0532260  67.8966538
  48.9639462  47.3829538  68.0083180  58.3554702  56.6296528  85.0302747
  57.4681480  56.2922449  85.1529145  58.9253253  55.8979559  85.2671512
  40.0083849  52.9620619  78.3545798  40.6954889  52.6482349  77.7666813
  39.8531977  53.8661984  78.0813049  44.8118571  47.8510816  82.7830822
  44.7276760  47.2436486  82.0481232  43.9901277  48.3419834  82.7840318
  51.8855855  61.2897980  81.9963990  51.8126026  62.0952952  82.5083294
  51.4433248  61.4889946  81.1712011  54.9842285  46.3364380  78.1501017
  55.4810984  45.5834342  77.8302087  54.2129266  46.3728696  77.5844226
  62.8372042  52.0404745  79.7919308  62.8261918  52.9229460  79.4213241
  61.9689422  51.6876296  79.5973845  54.3454538  61.1884814  84.1522148
  55.0582511  61.8232279  84.0798050  53.8544567  61.2848680  83.3362150
  56.0672065  55.0936067  75.7239440  55.1328344  55.2137529  75.5544144
  56.2448734  54.1908534  75.4599450  51.5677253  48.4781763  77.8772701
  51.1975041  47.9252803  78.5653607  52.0636346  47.8739896  77.3247701
  59.4544617  50.9353386  76.2589474  59.9205069  51.7681378  76.1849777
  59.9052117  50.4698368  76.9634733  49.3966452  58.9379258  84.9727719
  50.0975912  59.5715740  85.1257114  48.9261567  59.2793989  84.2123359
  57.5220848  57.2797207  73.2575626  57.7980692  57.1653802  74.1669500
  56.6525347  56.8814692  73.2187799  57.4261279  43.3033973  80.2980376
  56.5124359  43.5338200  80.4662583  57.8554381  43.3872417  81.1494408
  57.1967738  51.4923865  82.7980270  56.5439188  51.7399772  82.1432722
  57.5748118  50.6788003  82.4642747  53.2455311  52.2343676  89.2846307
  52.5695948  52.1337805  89.9548682  54.0682945  52.0782890  89.7482304
  44.9934170  58.4715613  81.9058822  45.5787607  57.7259300  82.0386726
  44.7959009  58.7819569  82.7895486  39.5851825  51.0421213  80.6263265
  39.6235924  50.5084803  81.4200383  39.0792118  50.5156418  80.0074242
  51.9878094  63.5410603  83.5203923  52.5396402  63.7042225  84.2853008
  52.3284287  64.1315041  82.8483948  46.9642587  45.8885753  84.1225807
  47.0283914  46.7500584  83.7103205  46.9009707  45.2759755  83.3898166
  46.4394860  47.9608886  87.7698842  47.0666898  47.5785963  88.3836366
  45.5822779  47.7423088  88.1354534  56.8388968  58.3671861  89.3752577
  57.3828872  58.9801819  88.8807532  56.2575813  58.9251439  89.8919590
  43.2160402  49.7685315  73.7017197  43.5113843  48.8595993  73.6484250
  42.3148438  49.7473054  73.3798199  55.1246481  61.4892579  80.5067605
  54.9997621  60.6882319  79.9978550  55.7825572  61.9838772  80.0181575
  46.7454649  47.8441311  79.6844745  46.0241235  48.4577279  79.5452218
  47.5347905  48.3799076  79.6061391  57.1881390  59.2901599  82.1347155
  56.2411725  59.1706950  82.0625482  57.5364163  58.4024097  82.2173416
  49.5480963  45.1795738  85.9585397  50.0715365  45.4258035  86.7211706
  49.3293296  46.0115773  85.5388534  44.9448244  47.4499413  73.8256522
  44.6160950  46.5696792  73.6431628  45.2987615  47.3947081  74.7132911
  54.1927823  59.0854315  78.3351507  54.0452785  58.1571023  78.5159077
  55.0181316  59.1074406  77.8508582  48.0590067  47.7372382  74.1931999
  48.3986140  48.2658304  73.4710608  48.5062188  48.0752789  74.9690566
  57.7961945  59.9082874  79.4216380  58.7208492  59.7025735  79.2840831
  57.6277248  59.6599275  80.3305721  50.7533508  46.1209433  83.6435067
  50.4130328  45.3217246  84.0455747  50.0472514  46.4211144  83.0711901
  51.4049980  43.2058746  82.0962390  52.2276049  42.7319224  81.9741281
  51.6488043  43.9849229  82.5961077  50.0458214  46.2347004  72.3925292
  50.7666577  46.6128257  71.8889009  49.4223518  46.9535881  72.4960270
  54.1889337  46.9392153  73.3283624  54.4052952  47.8216791  73.0272453
  53.7083404  46.5478366  72.5989266  48.9288559  49.8977866  79.9054369
  48.7833139  50.2118169  80.7978651  48.4513762  50.5162766  79.3525268
  50.7884941  46.8880414  79.9535259  50.7746510  45.9921507  79.6167557
  51.5057370  46.8951078  80.5873545  52.6411072  47.3217754  81.9988386
  52.3828850  48.2434825  81.9972716  52.1096113  46.9248189  82.6888850
  57.5857261  60.4268541  74.7778471  57.7594138  59.8614964  74.0252324
  58.0786152  61.2269436  74.5957961  43.4034221  52.4383211  82.8442030
  42.8587689  53.2143019  82.9762305  44.2813571  52.7854015  82.6861152
  50.1921837  45.7694794  75.2222829  50.3137749  44.8411441  75.4213716
  49.9023880  45.7833480  74.3101144  53.0613028  43.4549705  78.3589549
  53.0834725  43.5189038  77.4041528  53.4781087  42.6154214  78.5530055
  63.4396652  53.1904964  76.3968771  63.8827798  52.4412290  75.9987894
  62.5623162  53.1815101  76.0142503  58.5732433  59.7435306  71.8775370
  59.2683338  60.3641999  72.0962684  58.9155584  58.8930657  72.1527748
  44.1900243  51.5653107  85.7372187  43.4481979  51.7135742  86.3236817
  43.8692987  51.8261372  84.8738936  60.4723857  57.1935011  73.4062700
  60.9975181  57.5322284  72.6812020  60.3846209  56.2582027  73.2225835
  52.1343905  61.1069085  85.5352577  52.4431032  60.8618232  86.4075277
  52.9319387  61.3115724  85.0471447  44.6356856  59.4518536  77.7682582
  45.4614876  59.1522307  77.3881225  44.2850908  58.6826158  78.2172370
  49.6038389  58.8045004  79.8380255  48.9818399  58.1415709  79.5382483
  50.2743256  58.8306136  79.1553903  42.8365461  57.3704862  78.7271515
  41.9997370  56.9427036  78.5455517  42.8089107  57.5637305  79.6642306
  49.6762917  47.2826792  89.4312761  49.7251072  48.1588915  89.0490531
  50.2185431  46.7404185  88.8584405  60.1617763  57.8267915  88.7113898
  59.3713306  57.8092054  88.1718398  59.9251117  58.3656209  89.4662935
  60.2815638  54.6760381  86.0246627  60.3313643  54.5110389  86.9662150
  60.1729561  53.8087640  85.6344508  49.1651896  57.3548927  73.3138716
  49.3140017  58.0384392  72.6605389  49.9718340  57.3354017  73.8288172
  57.5719400  50.6591309  87.3405934  58.4729263  50.5197774  87.0489931
  57.6467375  50.8245764  88.2804111  51.9062205  48.0358164  86.1859120
  51.0365515  48.3291730  85.9141709  52.1421686  48.6198609  86.9066384
  61.7833834  57.0957323  86.2688648  61.4918643  57.4587303  87.1052109
  61.1705966  56.3824331  86.0901981  62.9829517  54.6610203  78.7891219
  63.8176408  55.1000007  78.9528779  63.1188646  54.1848856  77.9699464
  60.0321023  52.2189938  84.7368706  60.5075144  52.4117584  83.9287558
  59.1086588  52.2749123  84.4912090  46.9204529  53.3814105  74.3199785
  46.6750571  52.4776435  74.5179995  47.0900444  53.3831255  73.3779263
  54.6101239  44.2537781  83.7024540  55.1283183  44.9898808  83.3771029
  54.2556372  44.5601774  84.5371299  46.1900177  49.1142462  71.8185946
  45.4969422  49.1886817  71.1625982  45.9451929  48.3502806  72.3407463
  54.8613833  40.6738064  79.2225437  55.1415587  40.0061253  79.8485863
  55.6464440  40.8667159  78.7100101  58.7322692  49.0955698  82.9697012
  59.6840115  49.1953795  82.9909236  58.5626142  48.3033966  83.4795096
  56.7537071  46.1811281  83.1556413  56.1587003  46.4616294  82.4602902
  56.4686768  46.6705182  83.9273154  58.5132578  59.4500078  68.8762993
  58.4346210  59.1159942  69.7698751  59.3342245  59.9421846  68.8754465
  61.2110769  52.3161817  82.0839312  61.1787090  51.3777818  82.2698996
  61.8211393  52.3945854  81.3505137  53.0494100  51.1857870  68.1266516
  53.9953205  51.0564078  68.1954934  52.6708345  50.4472532  68.6035944
  61.3605258  49.1072861  82.1297595  60.8444307  48.3231317  81.9427524
  62.2445206  48.7791577  82.2944114  59.0215985  42.8513876  78.0893408
  58.8240806  42.5428965  78.9736740  59.6315690  43.5775515  78.2191337
  67.0287319  53.3777824  81.2245349  67.7590708  53.1163112  81.7853052
  66.4194265  52.6406546  81.2647416  65.1102616  51.5185687  81.8219800
  64.3835780  51.3841652  81.2136291  64.6949903  51.8262515  82.6276518
  52.9332793  55.2375616  89.5867173  53.8535802  55.4154215  89.7807219
  52.8982376  54.2931662  89.4346872  51.2337018  49.1107847  68.0621401
  50.3268473  48.8140959  68.1384115  51.5112999  48.8137665  67.1955687
  42.1514958  50.4314210  78.5120447  41.8317742  49.5779518  78.2194821
  41.6048386  50.6462788  79.2678415  45.9294865  53.1476651  82.2289954
  46.1480875  54.0793759  82.2477988  46.3420639  52.7884626  83.0144758
  52.8499083  43.6544736  74.2165642  52.0399812  43.3091821  74.5920888
  53.5383500  43.3452280  74.8053254  54.7789632  42.7322783  75.8389939
  55.3320670  43.1518237  76.4979962  55.0159718  41.8058531  75.8812895
  50.8022731  48.7209857  91.6192703  50.7019458  49.6704214  91.5504794
  50.5844273  48.3928096  90.7468773  42.0203218  54.0517122  80.4813569
  41.3266689  53.6371074  79.9683523  42.7676209  54.0937658  79.8846988
  58.1568439  44.8423308  75.3468603  57.5767108  45.5008112  74.9646656
  57.8904371  44.0200653  74.9356021  56.6072005  44.2428366  77.5489924
  57.1071783  44.3544901  76.7404242  57.2507613  43.9389419  78.1890732
  50.6654001  52.1506996  90.4357764  50.1821083  52.9507356  90.6421654
  50.7514940  52.1614941  89.4825208  43.9339960  53.9835375  78.3579584
  43.9110649  54.0823063  77.4061467  44.2440597  54.8300526  78.6796750
  46.5927338  56.0411530  82.4726198  47.5470592  56.0095473  82.4056130
  46.3939862  55.5802154  83.2876424  47.1826720  54.6112646  85.0396996
  48.0019609  55.1056725  85.0631833  47.4563528  53.6944615  85.0114563
  56.9393317  47.0023399  74.4024951  56.0519172  47.2873049  74.1845146
  57.3547306  46.8417162  73.5552228  60.2907853  47.0269920  78.1179291
  61.0668243  47.5166372  78.3903908  59.5655987  47.4527974  78.5751160
  62.7280411  47.7397539  79.1753231  63.3224902  47.4993275  78.4646540
  62.8006995  47.0204670  79.8026768  44.9477567  61.5831150  79.4896396
  44.8132035  60.8231551  78.9234394  44.5309629  62.3072050  79.0225185
  56.0836530  56.7668073  68.4972971  56.7872380  56.9718076  69.1130627
  55.3599179  57.3344835  68.7622055  56.9134340  52.5177935  74.6175242
  56.8569542  52.9746486  73.7782874  57.4662683  51.7568619  74.4398084
  60.7239146  48.3067667  75.4425361  60.4676081  47.9064302  76.2733569
  60.0992014  49.0211461  75.3175500  65.0351484  51.0463740  77.9496653
  64.4751042  51.1156929  78.7228215  64.4294987  50.8704724  77.2296149
  48.1046693  62.4800467  79.7014839  47.9879077  63.4245899  79.5993529
  47.2839139  62.1774028  80.0900638  57.9923227  57.2050603  70.5471431
  58.8268831  56.7731801  70.3648906  57.8307570  57.0332616  71.4748326
  57.6469120  53.7082716  71.9127771  57.5917923  53.5426987  70.9716215
  57.0215175  54.4158749  72.0689960  42.4361635  48.9450780  85.7389193
  43.0820498  48.4349734  86.2276418  42.2278786  49.6819462  86.3132618
  54.9615027  56.0131628  91.2381334  55.8306186  56.1872280  90.8767968
  54.4821778  56.8326045  91.1157063  50.9565245  43.2090825  71.4913089
  50.9443915  44.1532665  71.6481360  51.8488667  43.0260970  71.1972550
  49.1301207  63.1328729  82.9170767  50.0328454  63.1652339  83.2337262
  48.9038577  62.2029180  82.9317103  50.8854809  61.8859715  79.5780846
  49.9350440  61.8861577  79.4645218  51.1887295  61.1392450  79.0616880
  54.7717365  39.8033602  75.7459026  54.0049760  39.2492088  75.8915708
  55.1828070  39.8755470  76.6073178  46.7759126  46.0918397  89.8364207
  47.6390587  45.7355202  90.0467532  46.2024536  45.7532292  90.5239611
  66.6207503  67.7220254  80.6426608  67.2585913  67.6027001  79.9389948
  66.5028345  68.6701098  80.7014560  63.4297209  67.6747682  80.5788133
  63.0915720  67.5588747  79.6908668  64.2986977  67.2738847  80.5589139
  63.9116992  68.8282534  86.5374338  63.9005633  68.4335332  85.6654842
  64.0737631  68.0948606  87.1308110  56.8348456  71.0234350  79.4069244
  57.6269748  70.6825175  78.9915544  57.0745107  71.1329325  80.3271398
  60.6324253  71.6119645  85.4853522  60.3414119  72.5165276  85.3700189
  61.2681237  71.6536173  86.1997592  61.5580460  68.9896494  82.0754882
  62.1544032  68.7652516  81.3611845  61.6155431  68.2481239  82.6780330
  71.5757198  65.3846941  78.6212795  72.3082370  64.8146158  78.8550624
  70.8196554  64.9968541  79.0619300  69.0982619  59.0968515  83.0807403
  68.7665943  59.9663926  82.8568618  68.5028232  58.7804799  83.7601434
  65.5914138  71.2981061  82.4803316  65.2914861  72.2006100  82.3719123
  65.2465198  71.0313244  83.3324469  59.0426620  67.7494858  78.5140021
  58.1177116  67.6171072  78.7217712  59.2911033  68.5289077  79.0109963
  68.9911282  63.8163601  80.1600753  68.0828159  63.7479010  79.8659514
  68.9398878  64.2935546  80.9882579  56.4035431  67.3928131  79.3483810
  56.5327812  67.6462610  80.2623221  55.7232882  67.9855839  79.0288465
  63.0652148  65.2353247  88.1035651  62.2885482  65.7947167  88.0938515
  63.7042711  65.7210030  88.6250521  70.8572928  62.0180039  81.9378627
  70.2147309  62.3112573  81.2918422  70.3527857  61.9032960  82.7431824
  61.3198520  68.0438700  87.6653618  62.0613204  68.5823744  87.3888441
  60.6135505  68.6704989  87.8225170  66.7953860  70.1867841  86.2625779
  67.2037216  69.7450251  85.5180412  66.0731121  69.6120468  86.5159972
  63.1484930  65.1240447  83.6359336  63.9946125  65.5479861  83.7793985
  63.0883567  64.4674072  84.3297899  67.1182674  70.7469031  80.0178068
  66.4891537  70.9114745  79.3154136  66.7308336  71.1610641  80.7889032
  70.9971906  71.6823469  77.3722432  70.3122944  72.0622370  76.8219465
  71.0815755  72.2918796  78.1054380  66.2984375  62.7844816  85.2940510
  66.0545307  63.5386876  84.7574785  66.5744305  63.1630163  86.1287757
  68.2522838  69.3283428  83.9717775  68.4639733  69.9715188  83.2952156
  68.2052586  68.4945745  83.5039705  65.8549067  61.9401249  80.8754348
  64.9933546  62.2382502  81.1671085  65.8811501  62.1571648  79.9435380
  60.0559884  65.1978348  88.4668928  59.4258544  65.8794629  88.7004325
  59.9495972  65.0861430  87.5222066  69.3668666  72.2055383  82.1440133
  70.1886109  71.8035571  81.8622814  69.3631069  72.1023618  83.0956249
  63.1325269  71.7539427  84.3000843  63.1969702  72.2159834  85.1359015
  62.4236193  71.1236792  84.4283153  53.6342559  65.1180635  81.8249843
  53.8850598  66.0027645  82.0907419  54.1702108  64.9385236  81.0524935
  77.4574659  68.5494132  78.4925104  76.7038367  67.9801530  78.3369109
  77.5922200  68.5156796  79.4395739  59.3340626  59.4999114  90.8294179
  58.9407572  58.9465313  91.5041823  60.1506767  59.8109693  91.2200696
  62.2508587  60.9156993  88.4214435  62.9918301  61.5164146  88.3418898
  62.4826510  60.1734631  87.8632478  57.3949925  66.1013360  86.6992665
  57.2803441  65.1998618  86.9999764  56.5394443  66.3477057  86.3477482
  64.4741763  74.0431101  88.2980166  64.0305617  73.2567479  87.9801070
  65.1358977  74.2310251  87.6324056  66.5723001  74.3233901  86.3261567
  66.5541477  75.1442782  85.8341836  67.4942921  74.1987976  86.5511708
  63.0296055  71.8378030  87.1685075  63.5624392  71.0766318  86.9384383
  62.5010136  71.5451682  87.9109230  66.1965750  56.9438096  82.6978717
  65.8530020  57.8339738  82.6217828  66.5644713  56.7539754  81.8348302
  63.7463144  61.7796408  76.2636391  62.8904740  61.3903258  76.0842029
  64.1590096  61.8588369  75.4036176  65.2762291  59.3142751  80.6627950
  64.7727086  59.2772886  79.8495756  65.5692898  60.2235494  80.7224607
  61.5205177  59.3981481  79.6694132  62.3858173  59.2024290  79.3100021
  61.5882686  59.1691833  80.5963489  69.3741614  69.1613043  79.7970934
  68.7165289  69.8512304  79.8851062  70.1782013  69.5509475  80.1404920
  68.1847073  67.5157416  77.8474875  68.6978955  68.1487408  78.3496585
  68.8348297  66.9158611  77.4818235  61.4290163  58.5024938  75.7685568
  60.7754576  58.1873955  75.1442183  61.3870638  57.8800678  76.4945391
  64.6627904  64.9906871  80.0933216  63.7450465  65.2121818  79.9354904
  65.0788047  65.0653182  79.2344923  67.8941789  63.4255403  77.2054685
  67.1564545  62.9132789  77.5364928  68.1468562  62.9855785  76.3937962
  67.9953416  56.2031655  77.7996455  68.3012293  55.3429019  77.5122370
  68.7206021  56.7949275  77.5995449  60.2066856  65.1162508  76.0663025
  59.3934721  65.4156679  76.4728217  60.7025850  64.7218197  76.7837507
  65.8041067  65.5804333  84.8977919  66.1590455  65.8075806  85.7572384
  66.4513199  65.9122709  84.2755174  71.5338804  68.7022768  75.6027248
  71.3956703  68.8924364  74.6748437  71.1775023  69.4642151  76.0595299
  59.6980930  62.6880864  81.6824260  60.3380310  62.5469623  80.9847223
  58.8658461  62.4015377  81.3062862  71.5608184  70.7699295  80.6138519
  71.9944691  70.6774585  81.4621573  72.2739765  70.7456796  79.9758535
  56.7009547  62.6581189  76.4597246  56.9616364  63.5726522  76.3506407
  57.5226719  62.1905631  76.6093859  58.1734472  64.0718946  83.6296071
  58.8457526  63.8636308  82.9808720  57.3464259  63.8741032  83.1901303
  72.4223733  70.8122996  83.1471404  72.6159624  71.7168807  83.3930679
  72.3224352  70.3530415  83.9809989  64.0760044  60.6980887  85.6461732
  63.4287959  61.3970836  85.5526208  64.8461060  61.1317031  86.0137980
  67.4838842  70.9629739  88.7212285  67.3324349  70.7340291  87.8042369
  67.4743522  71.9200340  88.7343630  64.2524179  68.5361652  83.7058552
  65.1816239  68.6872811  83.5327519  63.8315209  68.6245672  82.8507198
  58.5761969  67.3461549  84.3898508  58.4381767  66.6141788  84.9910047
  59.4866893  67.2570449  84.1082696  61.2044270  67.0581508  83.8782188
  61.9143889  66.4174700  83.8368806  61.1613578  67.3094403  84.8008368
  69.1931049  73.9948861  86.7988767  69.1343595  73.3108082  86.1319350
  69.5950567  74.7367851  86.3469393  59.9173204  64.0446726  85.6977827
  59.3810561  63.5937464  86.3499424  59.3289913  64.1792635  84.9548292
  69.1948456  71.9588445  85.0302747  68.3075235  71.6214367  85.1529145
  69.7647007  71.2271477  85.2671512  55.6512325  63.1802734  82.7830822
  55.5670514  62.5728403  82.0481232  54.8295032  63.6711752  82.7840318
  65.8236039  61.6656297  78.1501017  66.3204739  60.9126260  77.8302087
  65.0523021  61.7020614  77.5844226  73.6765797  67.3696663  79.7919308
  73.6655673  68.2521378  79.4213241  72.8083176  67.0168214  79.5973845
  65.1848293  76.5176732  84.1522148  65.8976265  77.1524197  84.0798050
  64.6938322  76.6140598  83.3362150  62.4071008  63.8073680  77.8772701
  62.0368795  63.2544721  78.5653607  62.9030100  63.2031814  77.3247701
  70.2938371  66.2645304  76.2589474  70.7598823  67.0973295  76.1849777
  70.7445872  65.7990285  76.9634733  60.2360207  74.2671175  84.9727719
  60.9369666  74.9007658  85.1257114  59.7655322  74.6085907  84.2123359
  68.2655034  58.6325891  80.2980376  67.3518114  58.8630118  80.4662583
  68.6948135  58.7164335  81.1494408  68.0361492  66.8215783  82.7980270
  67.3832943  67.0691690  82.1432722  68.4141872  66.0079921  82.4642747
  64.0849066  67.5635594  89.2846307  63.4089703  67.4629723  89.9548682
  64.9076699  67.4074807  89.7482304  55.8327925  73.8007530  81.9058822
  56.4181361  73.0551218  82.0386726  55.6352763  74.1111487  82.7895486
  50.4245579  66.3713130  80.6263265  50.4629679  65.8376721  81.4200383
  49.9185872  65.8448336  80.0074242  57.8036342  61.2177671  84.1225807
  57.8677668  62.0792502  83.7103205  57.7403462  60.6051673  83.3898166
  57.2788614  63.2900803  87.7698842  57.9060653  62.9077881  88.3836366
  56.4216533  63.0715005  88.1354534  67.6782723  73.6963779  89.3752577
  68.2222627  74.3093737  88.8807532  67.0969568  74.2543357  89.8919590
  57.5848404  63.1733229  79.6844745  56.8634990  63.7869197  79.5452218
  58.3741660  63.7090994  79.6061391  68.0275144  74.6193517  82.1347155
  67.0805480  74.4998868  82.0625482  68.3757917  73.7316015  82.2173416
  60.3874717  60.5087656  85.9585397  60.9109119  60.7549952  86.7211706
  60.1687051  61.3407690  85.5388534  58.8983822  63.0664300  74.1931999
  59.2379894  63.5950221  73.4710608  59.3455942  63.4044706  74.9690566
  61.5927262  61.4501351  83.6435067  61.2524083  60.6509164  84.0455747
  60.8866269  61.7503062  83.0711901  62.2443734  58.5350663  82.0962390
  63.0669804  58.0611141  81.9741281  62.4881798  59.3141147  82.5961077
  60.8851969  61.5638922  72.3925292  61.6060331  61.9420174  71.8889009
  60.2617273  62.2827798  72.4960270  59.7682313  65.2269784  79.9054369
  59.6226894  65.5410087  80.7978651  59.2907517  65.8454684  79.3525268
  61.6278696  62.2172332  79.9535259  61.6140265  61.3213425  79.6167557
  62.3451124  62.2242996  80.5873545  63.4804827  62.6509672  81.9988386
  63.2222604  63.5726743  81.9972716  62.9489867  62.2540107  82.6888850
  54.2427975  67.7675128  82.8442030  53.6981443  68.5434936  82.9762305
  55.1207325  68.1145933  82.6861152  61.0315592  61.0986712  75.2222829
  61.1531503  60.1703358  75.4213716  60.7417634  61.1125398  74.3101144
  63.9006782  58.7841623  78.3589549  63.9228479  58.8480956  77.4041528
  64.3174841  57.9446131  78.5530055  74.2790407  68.5196882  76.3968771
  74.7221553  67.7704207  75.9987894  73.4016917  68.5107018  76.0142503
  55.0293997  66.8945025  85.7372187  54.2875733  67.0427660  86.3236817
  54.7086741  67.1553290  84.8738936  60.5156671  62.6118709  89.4312761
  60.5644827  63.4880832  89.0490531  61.0579186  62.0696103  88.8584405
  71.0011517  73.1559833  88.7113898  70.2107061  73.1383972  88.1718398
  70.7644872  73.6948126  89.4662935  71.1209392  70.0052299  86.0246627
  71.1707397  69.8402307  86.9662150  71.0123315  69.1379558  85.6344508
  68.4113155  65.9883227  87.3405934  69.3123017  65.8489692  87.0489931
  68.4861129  66.1537682  88.2804111  62.7455960  63.3650082  86.1859120
  61.8759269  63.6583648  85.9141709  62.9815440  63.9490527  86.9066384
  72.6227589  72.4249241  86.2688648  72.3312397  72.7879221  87.1052109
  72.0099720  71.7116249  86.0901981  73.8223271  69.9902120  78.7891219
  74.6570163  70.4291924  78.9528779  73.9582400  69.5140774  77.9699464
  70.8714777  67.5481855  84.7368706  71.3468899  67.7409502  83.9287558
  69.9480343  67.6041041  84.4912090  65.4494994  59.5829699  83.7024540
  65.9676938  60.3190726  83.3771029  65.0950126  59.8893692  84.5371299
  65.7007588  56.0029981  79.2225437  65.9809342  55.3353170  79.8485863
  66.4858195  56.1959077  78.7100101  69.5716446  64.4247615  82.9697012
  70.5233869  64.5245713  82.9909236  69.4019897  63.6325884  83.4795096
  67.5930826  61.5103199  83.1556413  66.9980758  61.7908211  82.4602902
  67.3080522  61.9997099  83.9273154  72.0504524  67.6453735  82.0839312
  72.0180844  66.7069736  82.2698996  72.6605148  67.7237772  81.3505137
  72.1999012  64.4364778  82.1297595  71.6838061  63.6523235  81.9427524
  73.0838961  64.1083495  82.2944114  69.8609739  58.1805794  78.0893408
  69.6634561  57.8720882  78.9736740  70.4709445  58.9067433  78.2191337
  77.8681074  68.7069742  81.2245349  78.5984462  68.4455030  81.7853052
  77.2588019  67.9698464  81.2647416  75.9496371  66.8477604  81.8219800
  75.2229535  66.7133569  81.2136291  75.5343658  67.1554433  82.6276518
  63.7726547  70.5667534  89.5867173  64.6929557  70.7446133  89.7807219
  63.7376130  69.6223579  89.4346872  56.7688620  68.4768569  82.2289954
  56.9874630  69.4085677  82.2477988  57.1814394  68.1176543  83.0144758
  63.6892838  58.9836654  74.2165642  62.8793566  58.6383739  74.5920888
  64.3777255  58.6744198  74.8053254  65.6183386  58.0614701  75.8389939
  66.1714425  58.4810154  76.4979962  65.8553472  57.1350449  75.8812895
  61.6416485  64.0501775  91.6192703  61.5413212  64.9996132  91.5504794
  61.4238027  63.7220013  90.7468773  60.8429557  61.2986700  68.2033380
  61.7048721  61.6241598  68.4629198  61.0279901  60.5118196  67.6906446
  52.8596972  69.3809039  80.4813569  52.1660444  68.9662992  79.9683523
  53.6069963  69.4229576  79.8846988  68.9962193  60.1715226  75.3468603
  68.4160862  60.8300030  74.9646656  68.7298126  59.3492571  74.9356021
  67.4465759  59.5720284  77.5489924  67.9465538  59.6836818  76.7404242
  68.0901367  59.2681337  78.1890732  61.5047755  67.4798913  90.4357764
  61.0214837  68.2799274  90.6421654  61.5908694  67.4906858  89.4825208
  57.4321093  71.3703448  82.4726198  58.3864346  71.3387390  82.4056130
  57.2333616  70.9094072  83.2876424  58.0220475  69.9404564  85.0396996
  58.8413364  70.4348643  85.0631833  58.2957283  69.0236532  85.0114563
  67.7787071  62.3315316  74.4024951  66.8912926  62.6164967  74.1845146
  68.1941060  62.1709080  73.5552228  71.1301607  62.3561837  78.1179291
  71.9061997  62.8458290  78.3903908  70.4049741  62.7819892  78.5751160
  73.5674166  63.0689457  79.1753231  74.1618657  62.8285193  78.4646540
  73.6400750  62.3496587  79.8026768  71.5632901  63.6359584  75.4425361
  71.3069835  63.2356220  76.2733569  70.9385769  64.3503378  75.3175500
  75.8745239  66.3755657  77.9496653  75.3144797  66.4448847  78.7228215
  75.2688742  66.1996642  77.2296149  53.2755389  64.2742698  85.7389193
  53.9214253  63.7641652  86.2276418  53.0672540  65.0111380  86.3132618
  65.8008781  71.3423545  91.2381334  66.6699941  71.5164198  90.8767968
  65.3215533  72.1617962  91.1157063  61.7959000  58.5382743  71.4913089
  61.7837669  59.4824583  71.6481360  62.6882421  58.3552888  71.1972550
  65.6111119  55.1325519  75.7459026  64.8443515  54.5784006  75.8915708
  66.0221824  55.2047388  76.6073178  57.6152880  61.4210315  89.8364207
  58.4784342  61.0647120  90.0467532  57.0418291  61.0824210  90.5239611
  77.4601257  83.0512171  80.6426608  78.0979667  82.9318919  79.9389948
  77.3422100  83.9993015  80.7014560  74.2690963  83.0039600  80.5788133
  73.9309475  82.8880664  79.6908668  75.1380732  82.6030765  80.5589139
  70.1277779  84.8575076  76.5685024  69.5642644  84.7665013  75.8001312
  70.0130174  84.0374980  77.0487516  74.7510746  84.1574451  86.5374338
  74.7399387  83.7627250  85.6654842  74.9131386  83.4240524  87.1308110
  67.6742211  86.3526268  79.4069244  68.4663503  86.0117092  78.9915544
  67.9138861  86.4621243  80.3271398  75.7077338  88.5246044  71.8799489
  75.0565318  89.1100124  71.4933503  76.5021701  89.0552239  71.9394526
  71.4718007  86.9411563  85.4853522  71.1807873  87.8457194  85.3700189
  72.1074992  86.9828091  86.1997592  72.3974214  84.3188412  82.0754882
  72.9937787  84.0944434  81.3611845  72.4549186  83.5773157  82.6780330
  71.9699243  81.7727847  69.9105073  72.2224763  81.2509368  69.1488536
  71.0323802  81.6093992  70.0131757  77.0142526  80.7763625  77.7179816
  77.8005615  80.3583048  77.3670233  77.2781230  81.6809717  77.8861465
  77.1852603  86.2136476  72.4168473  76.5498436  86.2871102  73.1289378
  76.8550009  86.8030074  71.7387552  82.4150953  80.7138858  78.6212795
  83.1476125  80.1438075  78.8550624  81.6590308  80.3260459  79.0619300
  71.6895531  83.6755953  72.1129448  71.5731790  83.0000856  72.7810532
  71.7997791  83.1888327  71.2961601  74.0327072  83.1366100  75.8176137
  73.6685280  82.6096721  76.5289059  74.8894188  82.7464569  75.6442623
  79.9376373  74.4260433  83.0807403  79.6059698  75.2955844  82.8568618
  79.3421986  74.1096717  83.7601434  73.6732559  78.1656000  70.8137486
  73.8406962  79.0336236  71.1807957  73.4829728  78.3283281  69.8898775
  76.4307893  86.6272979  82.4803316  76.1308616  87.5298017  82.3719123
  76.0858952  86.3605162  83.3324469  69.8820374  83.0786775  78.5140021
  68.9570871  82.9462990  78.7217712  70.1304787  83.8580995  79.0109963
  79.8305036  79.1455519  80.1600753  78.9221914  79.0770927  79.8659514
  79.7792632  79.6227464  80.9882579  73.6521780  80.6213657  71.7984153
  73.5321405  81.0670708  72.6369633  72.9574369  80.9698975  71.2397691
  71.4128672  93.3917299  75.4474284  71.3352702  94.3425124  75.5262764
  70.8090316  93.0463171  76.1049210  73.9045902  80.5645164  88.1035651
  73.1279236  81.1239084  88.0938515  74.5436465  81.0501947  88.6250521
  81.6966683  77.3471957  81.9378627  81.0541063  77.6404490  81.2918422
  81.1921611  77.2324877  82.7431824  79.3506846  81.0935130  72.6264487
  80.2624703  81.3262517  72.4512184  78.8416493  81.6772175  72.0639565
  72.1592274  83.3730618  87.6653618  72.9006959  83.9115662  87.3888441
  71.4529260  83.9996906  87.8225170  77.6347614  85.5159758  86.2625779
  78.0430970  85.0742169  85.5180412  76.9124876  84.9412386  86.5159972
  73.9878684  80.4532365  83.6359336  74.8339879  80.8771779  83.7793985
  73.9277322  79.7965989  84.3297899  77.9576429  86.0760949  80.0178068
  77.3285291  86.2406663  79.3154136  77.5702091  86.4902558  80.7889032
  81.8365661  87.0115387  77.3722432  81.1516699  87.3914288  76.8219465
  81.9209510  87.6210713  78.1054380  77.1378129  78.1136733  85.2940510
  76.8939061  78.8678794  84.7574785  77.4138060  78.4922081  86.1287757
  79.0916592  84.6575346  83.9717775  79.3033487  85.3007106  83.2952156
  79.0446340  83.8237662  83.5039705  76.6942821  77.2693166  80.8754348
  75.8327300  77.5674420  81.1671085  76.7205256  77.4863565  79.9435380
  73.5104391  85.8135357  77.2828153  73.9742736  86.0923060  76.4932776
  73.2461189  84.9118801  77.1001244  70.4028472  85.3606838  80.2207916
  70.9729829  85.7894107  79.5825401  70.9936584  85.0789423  80.9192102
  72.4473277  81.9358509  74.0917718  73.1497320  82.3879553  74.5591645
  72.1153905  81.2942328  74.7197611  70.8953638  80.5270266  88.4668928
  70.2652299  81.2086547  88.7004325  70.7889726  80.4153347  87.5222066
  80.2062420  87.5347301  82.1440133  81.0279864  87.1327488  81.8622814
  80.2024823  87.4315535  83.0956249  73.9719024  87.0831344  84.3000843
  74.0363456  87.5451752  85.1359015  73.2629948  86.4528709  84.4283153
  88.2968413  83.8786050  78.4925104  87.5432122  83.3093448  78.3369109
  88.4315954  83.8448714  79.4395739  73.6867041  88.7499452  74.1679824
  73.5512716  89.5950988  74.5964671  74.2276854  88.9518730  73.4045757
  70.1734381  74.8291032  90.8294179  69.7801326  74.2757230  91.5041823
  70.9900521  75.1401610  91.2200696  68.9491323  89.3840646  76.8230502
  69.1257952  90.3058611  76.6351486  69.7448157  89.0699065  77.2524882
  73.0902342  76.2448911  88.4214435  73.8312055  76.8456064  88.3418898
  73.3220265  75.5026549  87.8632478  68.2343680  81.4305278  86.6992665
  68.1197195  80.5290535  86.9999764  67.3788198  81.6768975  86.3477482
  70.0722639  90.9018820  82.8240844  70.6230064  90.7735883  82.0517838
  69.2334115  91.2013709  82.4735737  73.8689810  87.1669948  87.1685075
  74.4018147  86.4058236  86.9384383  73.3403891  86.8743600  87.9109230
  77.0359505  72.2730014  82.6978717  76.6923774  73.1631655  82.6217828
  77.4038467  72.0831671  81.8348302  77.0009788  82.2638625  71.2051152
  76.4856411  83.0343230  71.4439540  76.7287096  81.5903761  71.8284214
  74.5856899  77.1088326  76.2636391  73.7298495  76.7195176  76.0842029
  74.9983850  77.1880286  75.4036176  76.1156045  74.6434669  80.6627950
  75.6120841  74.6064804  79.8495756  76.4086652  75.5527412  80.7224607
  72.3598931  74.7273399  79.6694132  73.2251928  74.5316207  79.3100021
  72.4276440  74.4983750  80.5963489  81.9744062  85.0170980  73.1404326
  81.1973504  84.6782139  72.6959488  82.6535543  85.0223603  72.4659291
  76.7896091  80.1365717  73.0310933  76.4846226  80.4511866  73.8821076
  77.7426533  80.2147137  73.0738266  75.2342523  86.2955940  74.6803887
  74.7063884  85.5608700  74.3677125  74.7330025  87.0730617  74.4343856
  80.2135369  84.4904961  79.7970934  79.5559043  85.1804222  79.8851062
  81.0175768  84.8801393  80.1404920  79.0240827  82.8449333  77.8474875
  79.5372709  83.4779325  78.3496585  79.6742051  82.2450529  77.4818235
  72.2683918  73.8316855  75.7685568  71.6148330  73.5165873  75.1442183
  72.2264392  73.2092596  76.4945391  73.3795123  84.1136151  67.6838860
  72.4722185  83.8825404  67.8830009  73.8766155  83.3173770  67.8712842
  76.2863202  92.8233658  70.6035546  75.6124900  93.1265354  71.2120504
  76.6729024  93.6262738  70.2541004  75.5021658  80.3198789  80.0933216
  74.5844220  80.5413736  79.9354904  75.9181802  80.3945099  79.2344923
  76.2856706  81.7190205  75.2235896  77.0328525  82.2311602  74.9143018
  76.5548296  81.3974257  76.0840290  74.5583356  84.2148745  72.2062850
  73.6494575  83.9307778  72.3035320  74.5878440  84.6347824  71.3466157
  79.7902624  87.8255335  75.9754018  79.3364951  86.9846245  76.0319208
  79.1596590  88.4616733  76.3128798  78.7335543  78.7547321  77.2054685
  77.9958300  78.2424707  77.5364928  78.9862317  78.3147703  76.3937962
  78.2335563  89.6631832  76.9103836  78.5258537  90.2236889  76.1916202
  78.7434183  89.9560393  77.6656995  78.8347171  71.5323573  77.7996455
  79.1406047  70.6720936  77.5122370  79.5599775  72.1241193  77.5995449
  73.1068250  81.8277366  78.3072646  73.1616860  80.8751202  78.2315122
  72.2959452  81.9836805  78.7913944  74.2559444  85.7557489  69.5450929
  73.8178874  85.0393348  69.0856566  74.9969885  85.9833604  68.9836020
  73.1969188  90.4412183  77.9997289  73.1545367  90.6673029  77.0705821
  74.1131887  90.2075557  78.1483090  76.6434822  80.9096250  84.8977919
  76.9984210  81.1367723  85.7572384  77.2906953  81.2414627  84.2755174
  82.3732559  84.0314686  75.6027248  82.2350457  84.2216282  74.6748437
  82.0168778  84.7934069  76.0595299  82.4001938  86.0991213  80.6138519
  82.8338445  86.0066502  81.4621573  83.1133519  86.0748714  79.9758535
  71.3134989  87.3175212  77.7959252  72.1075587  86.8225532  77.5941827
  70.6026681  86.7893075  77.4326958  76.1329833  89.6993307  82.1471620
  76.1866856  90.2684244  82.9149336  75.2644615  89.8695192  81.7825657
  69.0128227  79.4010863  83.6296071  69.6851280  79.1928226  82.9808720
  68.1858013  79.2032949  83.1901303  83.2617488  86.1414914  83.1471404
  83.4553378  87.0460724  83.3930679  83.1618106  85.6822333  83.9809989
  74.9153799  76.0272804  85.6461732  74.2681714  76.7262754  85.5526208
  75.6854814  76.4608948  86.0137980  75.0917933  83.8653569  83.7058552
  76.0209993  84.0164729  83.5327519  74.6708963  83.9537590  82.8507198
  73.8906265  87.8904234  81.4757089  73.7517351  87.5223018  82.3483027
  73.1020861  88.4051873  81.3041047  74.4854417  92.9913330  72.8182626
  74.6606172  92.5201373  73.6328248  73.7987205  93.6179096  73.0463886
  75.4411480  87.2685836  78.8645927  75.1061313  87.2286606  79.7603577
  74.9415426  86.6030552  78.3916337  69.4155724  82.6753466  84.3898508
  69.2775522  81.9433705  84.9910047  70.3260647  82.5862367  84.1082696
  78.3770672  84.6141871  69.1382987  77.7599842  83.8888699  69.0416039
  77.9087160  85.3751231  68.7950061  72.0438025  82.3873426  83.8782188
  72.7537643  81.7466618  83.8368806  72.0007333  82.6386321  84.8008368
  70.7566959  79.3738644  85.6977827  70.2204316  78.9229382  86.3499424
  70.1683667  79.5084552  84.9548292  69.0515502  96.1402693  79.5922486
  69.2912100  96.7721217  80.2701504  68.2084699  95.7890733  79.8787845
  80.0342211  87.2880363  85.0302747  79.1468989  86.9506285  85.1529145
  80.6040762  86.5563394  85.2671512  73.5643364  91.9481815  81.9963990
  73.4913535  92.7536787  82.5083294  73.1220757  92.1473781  81.1712011
  73.3533144  91.1853585  75.5066811  72.5700665  91.7275266  75.6005036
  74.0525889  91.7027565  75.9061053  76.6629794  76.9948215  78.1501017
  77.1598493  76.2418177  77.8302087  75.8916775  77.0312532  77.5844226
  84.5159551  82.6988580  79.7919308  84.5049427  83.5813296  79.4213241
  83.6476931  82.3460131  79.5973845  77.7459574  85.7519902  75.7239440
  76.8115853  85.8721365  75.5544144  77.9236243  84.8492369  75.4599450
  81.1332126  81.5937221  76.2589474  81.5992578  82.4265213  76.1849777
  81.5839626  81.1282203  76.9634733  71.0753961  89.5963093  84.9727719
  71.7763420  90.2299576  85.1257114  70.6049076  89.9377824  84.2123359
  79.2008357  87.9381043  73.2575626  79.4768201  87.8237637  74.1669500
  78.3312856  87.5398528  73.2187799  79.1048788  73.9617808  80.2980376
  78.1911868  74.1922035  80.4662583  79.5341890  74.0456252  81.1494408
  78.8755247  82.1507700  82.7980270  78.2226697  82.3983608  82.1432722
  79.2535627  81.3371839  82.4642747  75.8362421  92.1867393  76.9008440
  76.0184815  91.3689049  77.3636192  76.6595407  92.4035086  76.4633330
  76.1704586  91.1135579  74.1623488  76.6992353  90.6028033  73.5493651
  76.4332806  90.7978109  75.0269021  74.9242820  82.8927511  89.2846307
  74.2483457  82.7921641  89.9548682  75.7470454  82.7366725  89.7482304
  66.6721679  89.1299448  81.9058822  67.2575116  88.3843136  82.0386726
  66.4746518  89.4403405  82.7895486  69.5260334  92.1650695  76.9221264
  68.8570710  92.6496823  76.4385304  69.3873204  92.4119916  77.8364643
  68.6430096  76.5469589  84.1225807  68.7071423  77.4084420  83.7103205
  68.5797216  75.9343590  83.3898166  68.1182369  78.6192721  87.7698842
  68.7454407  78.2369798  88.3836366  67.2610287  78.4006923  88.1354534
  76.8033990  92.1476414  80.5067605  76.6785130  91.3466154  79.9978550
  77.4613081  92.6422608  80.0181575  78.8668899  89.9485434  82.1347155
  77.9199234  89.8290786  82.0625482  79.2151672  89.0607932  82.2173416
  71.2268472  75.8379573  85.9585397  71.7502874  76.0841870  86.7211706
  71.0080805  76.6699608  85.5388534  75.8715332  89.7438151  78.3351507
  75.7240294  88.8154858  78.5159077  76.6968825  89.7658241  77.8508582
  79.4749454  90.5666709  79.4216380  80.3996001  90.3609571  79.2840831
  79.3064757  90.3183111  80.3305721  72.4321017  76.7793268  83.6435067
  72.0917837  75.9801082  84.0455747  71.7260023  77.0794979  83.0711901
  73.0837489  73.8642581  82.0962390  73.9063558  73.3903059  81.9741281
  73.3275552  74.6433065  82.5961077  75.8676846  77.5975988  73.3283624
  76.0840461  78.4800626  73.0272453  75.3870913  77.2062202  72.5989266
  74.3198581  77.9801590  81.9988386  74.0616359  78.9018660  81.9972716
  73.7883622  77.5832024  82.6888850  79.2644770  91.0852377  74.7778471
  79.4381647  90.5198799  74.0252324  79.7573661  91.8853272  74.5957961
  65.0821730  83.0967046  82.8442030  64.5375198  83.8726854  82.9762305
  65.9601080  83.4437850  82.6861152  85.1184161  83.8488800  76.3968771
  85.5615307  83.0996125  75.9987894  84.2410671  83.8398936  76.0142503
  80.2519942  90.4019141  71.8775370  80.9470847  91.0225834  72.0962684
  80.5943093  89.5514492  72.1527748  65.8687752  82.2236942  85.7372187
  65.1269488  82.3719578  86.3236817  65.5480496  82.4845208  84.8738936
  82.1511365  87.8518847  73.4062700  82.6762690  88.1906120  72.6812020
  82.0633718  86.9165862  73.2225835  73.8352026  93.9190830  77.7657954
  73.3957017  93.4267209  78.4590810  74.5860143  93.3763798  77.5250029
  66.3144365  90.1102371  77.7682582  67.1402385  89.8106143  77.3881225
  65.9638417  89.3409993  78.2172370  71.2825898  89.4628839  79.8380255
  70.6605908  88.7999544  79.5382483  71.9530765  89.4889971  79.1553903
  64.5152970  88.0288697  78.7271515  63.6784879  87.6010872  78.5455517
  64.4876616  88.2221141  79.6642306  71.3550426  77.9410627  89.4312761
  71.4038581  78.8172750  89.0490531  71.8972940  77.3988020  88.8584405
  79.2506909  81.3175145  87.3405934  80.1516772  81.1781610  87.0489931
  79.3254884  81.4829600  88.2804111  73.5849714  78.6942000  86.1859120
  72.7153024  78.9875566  85.9141709  73.8209195  79.2782445  86.9066384
  84.6617026  85.3194038  78.7891219  85.4963917  85.7583842  78.9528779
  84.7976155  84.8432691  77.9699464  81.7108532  82.8773773  84.7368706
  82.1862653  83.0701419  83.9287558  80.7874097  82.9332959  84.4912090
  76.2888748  74.9121616  83.7024540  76.8070692  75.6482643  83.3771029
  75.9343881  75.2185610  84.5371299  76.5401342  71.3321899  79.2225437
  76.8203096  70.6645088  79.8485863  77.3251949  71.5250995  78.7100101
  74.3434811  90.5080893  70.7850463  73.7708778  91.1271080  70.3320935
  74.9167605  91.0580255  71.3190385  80.4110201  79.7539533  82.9697012
  81.3627624  79.8537631  82.9909236  80.2413651  78.9617802  83.4795096
  78.4324580  76.8395116  83.1556413  77.8374512  77.1200129  82.4602902
  78.1474277  77.3289017  83.9273154  77.5632071  90.7918043  71.9159046
  78.4962744  90.7263605  72.1191921  77.4755283  91.6274310  71.4573578
  80.1920087  90.1083913  68.8762993  80.1133719  89.7743777  69.7698751
  81.0129754  90.6005681  68.8754465  82.8898278  82.9745653  82.0839312
  82.8574599  82.0361653  82.2698996  83.4998902  83.0529689  81.3505137
  74.7281609  81.8441706  68.1266516  75.6740714  81.7147914  68.1954934
  74.3495854  81.1056368  68.6035944  83.0392767  79.7656696  82.1297595
  82.5231816  78.9815153  81.9427524  83.9232715  79.4375413  82.2944114
  80.7003494  73.5097712  78.0893408  80.5028315  73.2012800  78.9736740
  81.3103199  74.2359351  78.2191337  88.7074828  84.0361660  81.2245349
  89.4378217  83.7746948  81.7853052  88.0981774  83.2990381  81.2647416
  86.7890125  82.1769522  81.8219800  86.0623289  82.0425487  81.2136291
  86.3737412  82.4846351  82.6276518  67.6082374  83.8060486  82.2289954
  67.8268384  84.7377594  82.2477988  68.0208148  83.4468461  83.0144758
  74.5286592  74.3128572  74.2165642  73.7187321  73.9675657  74.5920888
  75.2171009  74.0036116  74.8053254  76.4577140  73.3906619  75.8389939
  77.0108179  73.8102072  76.4979962  76.6947227  72.4642367  75.8812895
  72.4810240  79.3793692  91.6192703  72.3806967  80.3288049  91.5504794
  72.2631782  79.0511931  90.7468773  63.6990727  84.7100957  80.4813569
  63.0054198  84.2954910  79.9683523  64.4463718  84.7521493  79.8846988
  79.8355948  75.5007144  75.3468603  79.2554617  76.1591948  74.9646656
  79.5691880  74.6784488  74.9356021  78.2859514  74.9012201  77.5489924
  78.7859292  75.0128736  76.7404242  78.9295122  74.5973254  78.1890732
  72.3441510  82.8090831  90.4357764  71.8608591  83.6091191  90.6421654
  72.4302449  82.8198776  89.4825208  68.2714847  86.6995366  82.4726198
  69.2258101  86.6679308  82.4056130  68.0727371  86.2385990  83.2876424
  68.8614229  85.2696482  85.0396996  69.6807118  85.7640560  85.0631833
  69.1351037  84.3528450  85.0114563  78.6180826  77.6607234  74.4024951
  77.7306681  77.9456885  74.1845146  79.0334815  77.5000998  73.5552228
  81.9695362  77.6853755  78.1179291  82.7455752  78.1750208  78.3903908
  81.2443496  78.1111809  78.5751160  84.4067920  78.3981374  79.1753231
  85.0012411  78.1577110  78.4646540  84.4794504  77.6788505  79.8026768
  66.6265076  92.2414985  79.4896396  66.4919544  91.4815386  78.9234394
  66.2097138  92.9655885  79.0225185  77.7624039  87.4251909  68.4972971
  78.4659889  87.6301911  69.1130627  77.0386688  87.9928671  68.7622055
  78.5921849  83.1761770  74.6175242  78.5357051  83.6330321  73.7782874
  79.1450192  82.4152455  74.4398084  82.4026655  78.9651502  75.4425361
  82.1463589  78.5648138  76.2733569  81.7779523  79.6795296  75.3175500
  86.7138993  81.7047575  77.9496653  86.1538551  81.7740764  78.7228215
  86.1082496  81.5288560  77.2296149  69.7834202  93.1384302  79.7014839
  69.6666586  94.0829735  79.5993529  68.9626648  92.8357864  80.0900638
  79.6710736  87.8634438  70.5471431  80.5056340  87.4315636  70.3648906
  79.5095079  87.6916452  71.4748326  79.3256629  84.3666551  71.9127771
  79.2705432  84.2010823  70.9716215  78.7002684  85.0742584  72.0689960
  70.8088716  93.7912564  82.9170767  71.7115963  93.8236174  83.2337262
  70.5826086  92.8613015  82.9317103  72.5642318  92.5443551  79.5780846
  71.6137949  92.5445412  79.4645218  72.8674804  91.7976285  79.0616880
  76.4504874  70.4617437  75.7459026  75.6837269  69.9075924  75.8915708
  76.8615579  70.5339306  76.6073178  68.4546635  76.7502233  89.8364207
  69.3178096  76.3939038  90.0467532  67.8812045  76.4116128  90.5239611
  80.9671534 100.1866994  76.5685024  80.4036399 100.0956931  75.8001312
  80.8523929  99.3666898  77.0487516  80.4726719 100.9427098  72.2786623
  81.2457595 100.3956086  72.1399499  80.8252118 101.8071348  72.4901085
  82.8092997  97.1019765  69.9105073  83.0618518  96.5801286  69.1488536
  81.8717556  96.9385910  70.0131757  82.5289286  99.0047871  72.1129448
  82.4125544  98.3292774  72.7810532  82.6391546  98.5180244  71.2961601
  84.8720827  98.4658018  75.8176137  84.5079034  97.9388639  76.5289059
  85.7287943  98.0756487  75.6442623  84.5126314  93.4947917  70.8137486
  84.6800716  94.3628154  71.1807957  84.3223483  93.6575199  69.8898775
  84.4915535  95.9505575  71.7984153  84.3715160  96.3962626  72.6369633
  83.7968123  96.2990893  71.2397691  90.1900601  96.4227048  72.6264487
  91.1018457  96.6554435  72.4512184  89.6810248  97.0064092  72.0639565
  83.2867031  97.2650427  74.0917718  83.9891074  97.7171471  74.5591645
  82.9547660  96.6234246  74.7197611  77.0292365  95.5233980  79.3934852
  76.2391419  95.7791508  78.9174963  77.5203612  96.3382317  79.4986892
  78.9807110  95.8878559  76.3518329  78.1838274  95.9997253  76.8701824
  78.7532703  96.2265211  75.4859219  77.9790193 101.5966808  74.7407749
  78.4914714 102.3910058  74.8913313  78.6312906 100.8993098  74.6741350
  75.9439110  99.9255462  75.5167319  76.7814332 100.3352470  75.3001027
  76.1217378  98.9854904  75.4867513  87.8403542  97.5930543  71.2051152
  87.3250165  98.3635147  71.4439540  87.5680851  96.9195679  71.8284214
  85.4250653  92.4380243  76.2636391  84.5692249  92.0487094  76.0842029
  85.8377605  92.5172204  75.4036176  83.1992686  90.0565316  79.6694132
  84.0645682  89.8608125  79.3100021  83.2670195  89.8275668  80.5963489
  87.6289845  95.4657635  73.0310933  87.3239981  95.7803784  73.8821076
  88.5820287  95.5439055  73.0738266  86.0736277 101.6247858  74.6803887
  85.5457639 100.8900618  74.3677125  85.5723780 102.4022534  74.4343856
  80.8055005  92.2867524  77.0410499  81.3798757  92.0642706  76.3083692
  81.3925987  92.3556219  77.7939100  81.1324592  94.3171985  71.0606384
  80.2961904  94.6546672  71.3815659  80.9929361  94.1820965  70.1233521
  83.1077672  89.1608773  75.7685568  82.4542085  88.8457790  75.1442183
  83.0658147  88.5384514  76.4945391  84.2188877  99.4428068  67.6838860
  83.3115939  99.2117322  67.8830009  84.7159909  98.6465687  67.8712842
  87.1250461  97.0482122  75.2235896  87.8722279  97.5603520  74.9143018
  87.3942050  96.7266175  76.0840290  85.3977111  99.5440663  72.2062850
  84.4888330  99.2599696  72.3035320  85.4272195  99.9639742  71.3466157
  89.5729298  94.0839239  77.2054685  88.8352054  93.5716625  77.5364928
  89.8256071  93.6439620  76.3937962  89.6740925  86.8615491  77.7996455
  89.9799802  86.0012854  77.5122370  90.3993530  87.4533111  77.5995449
  75.9665281  97.2646177  76.1878053  75.7689681  96.6715538  75.4629119
  75.4111945  96.9598387  76.9053991  85.0953199 101.0849407  69.5450929
  84.6572628 100.3685266  69.0856566  85.8363639 101.3125522  68.9836020
  81.8854365  95.7746343  76.0663025  81.0722230  96.0740514  76.4728217
  82.3813359  95.3802032  76.7837507  78.4611507  96.7910211  73.8719005
  77.5309095  96.7294667  74.0888967  78.5568979  96.2686164  73.0755646
  78.3797056  93.3165024  76.4597246  78.6403873  94.2310357  76.3506407
  79.2014228  92.8489467  76.6093859  89.2164426  99.9433788  69.1382987
  88.5993597  99.2180617  69.0416039  88.7480915 100.7043149  68.7950061
  81.0062972  94.1619213  68.2604291  80.1292438  94.0408013  67.8966538
  81.4820725  93.3705291  68.0083180  72.5265112  98.9496372  78.3545798
  73.2136152  98.6358102  77.7666813  72.3713241  99.8537737  78.0813049
  77.3299834  93.8386569  82.7830822  77.2458023  93.2312239  82.0481232
  76.5082541  94.3295587  82.7840318  87.5023548  92.3240133  78.1501017
  87.9992248  91.5710095  77.8302087  86.7310530  92.3604449  77.5844226
  84.0858517  94.4657516  77.8772701  83.7156304  93.9128556  78.5653607
  84.5817609  93.8615649  77.3247701  72.1033088  97.0296966  80.6263265
  72.1417188  96.4960556  81.4200383  71.5973381  96.5032171  80.0074242
  75.7341666  95.7561068  73.7017197  76.0295107  94.8471746  73.6484250
  74.8329702  95.7348807  73.3798199  79.2635913  93.8317065  79.6844745
  78.5422499  94.4453032  79.5452218  80.0529169  94.3674829  79.6061391
  77.4629507  93.4375166  73.8256522  77.1342214  92.5572545  73.6431628
  77.8168878  93.3822834  74.7132911  80.5771331  93.7248135  74.1931999
  80.9167403  94.2534057  73.4710608  81.0243451  94.0628542  74.9690566
  82.5639478  92.2222757  72.3925292  83.2847840  92.6004010  71.8889009
  81.9404782  92.9411634  72.4960270  86.7070601  92.9267906  73.3283624
  86.9234215  93.8092544  73.0272453  86.2264668  92.5354119  72.5989266
  83.3066205  92.8756167  79.9535259  83.2927774  91.9797260  79.6167557
  84.0238633  92.8826831  80.5873545  82.7103101  91.7570547  75.2222829
  82.8319012  90.8287194  75.4213716  82.4205143  91.7709233  74.3101144
  85.5794291  89.4425458  78.3589549  85.6015988  89.5064791  77.4041528
  85.9962350  88.6029967  78.5530055  81.6833160 103.3424680  73.3138716
  81.8321280 104.0260145  72.6605389  82.4899603 103.3229770  73.8288172
  79.4385793  99.3689858  74.3199785  79.1931835  98.4652188  74.5179995
  79.6081707  99.3707008  73.3779263  78.7081440  95.1018215  71.8185946
  78.0150685  95.1762570  71.1625982  78.4633192  94.3378559  72.3407463
  87.3795097  86.6613817  79.2225437  87.6596851  85.9937006  79.8485863
  88.1645704  86.8542912  78.7100101  85.5675364  97.1733623  68.1266516
  86.5134469  97.0439831  68.1954934  85.1889609  96.4348285  68.6035944
  91.5397248  88.8389629  78.0893408  91.3422069  88.5304718  78.9736740
  92.1496954  89.5651268  78.2191337  83.7518281  95.0983600  68.0621401
  82.8449736  94.8016712  68.1384115  84.0294262  94.8013418  67.1955687
  74.6696221  96.4189963  78.5120447  74.3499006  95.5655271  78.2194821
  74.1229650  96.6338541  79.2678415  85.3680347  89.6420489  74.2165642
  84.5581075  89.2967574  74.5920888  86.0564764  89.3328033  74.8053254
  87.2970895  88.7198536  75.8389939  87.8501934  89.1393990  76.4979962
  87.5340981  87.7934284  75.8812895  82.5217066  91.9570535  68.2033380
  83.3836230  92.2825433  68.4629198  82.7067410  91.1702031  67.6906446
  90.6749702  90.8299061  75.3468603  90.0948371  91.4883865  74.9646656
  90.4085635  90.0076406  74.9356021  89.1253268  90.2304119  77.5489924
  89.6253047  90.3420654  76.7404242  89.7688876  89.9265172  78.1890732
  76.4521224  99.9711128  78.3579584  76.4291912 100.0698816  77.4061467
  76.7621860 100.8176279  78.6796750  89.4574580  92.9899152  74.4024951
  88.5700435  93.2748802  74.1845146  89.8728569  92.8292915  73.5552228
  89.4315604  98.5053688  74.6175242  89.3750805  98.9622239  73.7782874
  89.9843946  97.7444372  74.4398084  93.2420410  94.2943420  75.4425361
  92.9857344  93.8940055  76.2733569  92.6173278  95.0087214  75.3175500
  83.4746509  89.1966578  71.4913089  83.4625178  90.1408418  71.6481360
  84.3669930  89.0136723  71.1972550  87.2898628  85.7909355  75.7459026
  86.5231024  85.2367841  75.8915708  87.7009333  85.8631223  76.6073178
  34.1026240  -1.2593377  67.3671915  34.7404650  -1.3786629  66.6635255
  33.9847083  -0.3112533  67.4259867  30.9115947  -1.3065949  67.3033440
  30.5734458  -1.4224884  66.4153974  31.7805715  -1.7074783  67.2834446
  26.7702762   0.5469528  63.2930331  26.2067627   0.4559465  62.5246618
  26.6555157  -0.2730568  63.7732823  31.3935730  -0.1531097  73.2619645
  31.3824370  -0.5478299  72.3900149  31.5556369  -0.8865024  73.8553417
  24.3167194   2.0420719  66.1314551  25.1088486   1.7011544  65.7160850
  24.5563844   2.1515694  67.0516704  32.3502321   4.2140496  58.6044795
  31.6990301   4.7994576  58.2178809  33.1446684   4.7446690  58.6639833
  26.2757948   1.3029633  59.0031930  27.0488824   0.7558620  58.8644806
  26.6283347   2.1673882  59.2146391  28.1142991   2.6306015  72.2098829
  27.8232857   3.5351646  72.0945495  28.7499975   2.6722543  72.9242899
  29.0399198   0.0082863  68.8000189  29.6362770  -0.2161114  68.0857152
  29.0974169  -0.7332391  69.4025637  28.6124226  -2.5377701  56.6350380
  28.8649747  -3.0596180  55.8733843  27.6748785  -2.7011556  56.7377063
  33.6567509  -3.5341923  64.4425123  34.4430598  -3.9522500  64.0915540
  33.9206213  -2.6295831  64.6106771  33.8277586   1.9030927  59.1413780
  33.1923419   1.9765554  59.8534684  33.4974993   2.4924526  58.4632859
  39.0575936  -3.5966690  65.3458101  39.7901108  -4.1667473  65.5795931
  38.3015292  -3.9845089  65.7864607  28.3320515  -0.6349595  58.8374755
  28.2156773  -1.3104692  59.5055839  28.4422775  -1.1217221  58.0206908
  30.6752056  -1.1739448  62.5421444  30.3110263  -1.7008827  63.2534365
  31.5319172  -1.5640979  62.3687929  33.0732876   2.3167430  69.2048623
  32.7733599   3.2192469  69.0964430  32.7283935   2.0499614  70.0569776
  26.5245357  -1.2318773  65.2385327  25.5995854  -1.3642559  65.4463019
  26.7729771  -0.4524553  65.7355270  36.4730020  -5.1650029  66.8846060
  35.5646897  -5.2334621  66.5904821  36.4217615  -4.6878084  67.7127886
  30.2946764  -3.6891891  58.5229459  30.1746389  -3.2434840  59.3614940
  29.5999352  -3.3406573  57.9642997  28.0553656   9.0811751  62.1719590
  27.9777685  10.0319576  62.2508071  27.4515299   8.7357623  62.8294517
  30.5470885  -3.7460384  74.8280957  29.7704220  -3.1866464  74.8183822
  31.1861448  -3.2603601  75.3495827  38.3391666  -6.9633591  68.6623934
  37.6966046  -6.6701058  68.0163729  37.8346595  -7.0780671  69.4677131
  35.9931830  -3.2170418  59.3509793  36.9049686  -2.9843031  59.1757491
  35.4841477  -2.6333374  58.7884872  28.8017258  -0.9374930  74.3898924
  29.5431942  -0.3989886  74.1133748  28.0954243  -0.3108642  74.5470476
  34.2772597   1.2054210  72.9871086  34.6855953   0.7636621  72.2425718
  33.5549859   0.6306838  73.2405279  30.6303667  -3.8573183  70.3604643
  31.4764863  -3.4333770  70.5039292  30.5702305  -4.5139559  71.0543206
  34.6001412   1.7655401  66.7423375  33.9710274   1.9301115  66.0399443
  34.2127074   2.1797010  67.5134339  38.4790644   2.7009839  64.0967738
  37.7941682   3.0808740  63.5464772  38.5634493   3.3105165  64.8299686
  33.7803113  -6.1968815  72.0185816  33.5364045  -5.4426754  71.4820092
  34.0563043  -5.8183467  72.8533063  35.7341576   0.3469798  70.6963082
  35.9458471   0.9901557  70.0197463  35.6871324  -0.4867886  70.2285012
  33.3367804  -7.0412382  67.5999654  32.4752284  -6.7431128  67.8916392
  33.3630239  -6.8241983  66.6680687  30.1529374   1.5029809  64.0073460
  30.6167719   1.7817512  63.2178082  29.8886172   0.6013253  63.8246551
  27.0453455   1.0501290  66.9453223  27.6154812   1.4788559  66.3070708
  27.6361567   0.7683875  67.6437409  29.0898260  -2.3747039  60.8163025
  29.7922303  -1.9225995  61.2836951  28.7578888  -3.0163220  61.4442918
  36.8487403   3.2241753  68.8685439  37.6704847   2.8221940  68.5868121
  36.8449806   3.1209987  69.8201555  30.6144007   2.7725796  71.0246150
  30.6788439   3.2346204  71.8604322  29.9054931   2.1423161  71.1528460
  44.9393397  -0.4319499  65.2170411  44.1857105  -1.0012100  65.0614415
  45.0740938  -0.4656834  66.1641046  30.3292025   4.4393904  60.8925130
  30.1937699   5.2845440  61.3209978  30.8701837   4.6413181  60.1291064
  23.7821422   1.9569342  61.4653055  24.2945943   2.7512592  61.6158620
  24.4344135   1.2595632  61.3986657  25.5916307   5.0735098  63.5475808
  25.7682935   5.9953063  63.3596792  26.3873140   4.7593517  63.9770188
  31.9560501   5.0617470  75.0225472  31.5124355   4.2753849  74.7046377
  32.6177715   5.2496621  74.3569363  26.7147622   6.5913272  69.5486151
  27.2655047   6.4630335  68.7763145  25.8759098   6.8908161  69.1981044
  34.0541739   5.3420270  73.0506874  34.0360214   6.1629151  72.5587143
  34.9761659   5.2174345  73.2757015  30.5114793   2.8564400  73.8930382
  31.0443130   2.0952688  73.6629690  29.9828874   2.5638052  74.6354536
  33.6434771  -2.0466923  57.9296459  33.1281394  -1.2762319  58.1684846
  33.3712079  -2.7201787  58.5529520  38.6169045   0.7065431  59.8649632
  37.8398488   0.3676591  59.4204794  39.2960526   0.7118055  59.1904597
  33.4321074  -4.1739831  59.7556240  33.1271210  -3.8593682  60.6066383
  34.3851516  -4.0958411  59.7983573  31.8767506   1.9850392  61.4049194
  31.3488867   1.2503152  61.0922431  31.3755009   2.7625069  61.1589162
  36.8560352   0.1799413  66.5216240  36.1984026   0.8698674  66.6096369
  37.6600751   0.5695845  66.8650227  35.6665811  -1.4656215  64.5720182
  36.1797692  -0.8326223  65.0741892  36.3167035  -2.0655019  64.2063542
  30.0220106  -0.1969398  54.4084167  29.1147168  -0.4280144  54.6075316
  30.5191138  -0.9931778  54.5958149  32.9288185   8.5128110  57.3280853
  32.2549884   8.8159806  57.9365811  33.3154007   9.3157190  56.9786310
  32.1446642  -3.9906759  66.8178522  31.2269203  -3.7691812  66.6600211
  32.5606785  -3.9160449  65.9590230  32.9281689  -2.5915343  61.9481203
  33.6753508  -2.0793946  61.6388325  33.1973279  -2.9131291  62.8085596
  31.2008340  -0.0956803  58.9308157  30.2919559  -0.3797770  59.0280627
  31.2303423   0.3242276  58.0711464  36.4327607   3.5149787  62.6999325
  35.9789934   2.6740697  62.7564515  35.8021574   4.1511185  63.0374105
  35.3760526  -5.5558227  63.9299992  34.6383283  -6.0680841  64.2610235
  35.6287300  -5.9957846  63.1183269  34.8760546   5.3526283  63.6349143
  35.1683521   5.9131341  62.9161508  35.3859167   5.6454844  64.3902302
  29.7493234  -2.4828182  65.0317952  29.8041843  -3.4354346  64.9560429
  28.9384436  -2.3268743  65.5159251  30.8984427   1.4451941  56.2696236
  30.4603857   0.7287800  55.8101873  31.6394868   1.6728056  55.7081327
  29.8394171   6.1306635  64.7242596  29.7970350   6.3567481  63.7951128
  30.7556870   5.8970009  64.8728397  33.2859805  -3.4009298  71.6223225
  33.6409193  -3.1737825  72.4817691  33.9331936  -3.0690921  71.0000480
  39.0157542  -0.2790862  62.3272554  38.8775441  -0.0889266  61.3993743
  38.6593761   0.4828521  62.7840605  39.0426922   1.7885665  67.3383826
  39.4763428   1.6960954  68.1866880  39.7558502   1.7643165  66.7003842
  27.9559972   3.0069664  64.5204559  28.7500571   2.5119984  64.3187134
  27.2451665   2.4787527  64.1572264  32.7754817   5.3887759  68.8716926
  32.8291839   5.9578695  69.6394642  31.9069598   5.5589644  68.5070963
  39.9042471   1.8309366  69.8716711  40.0978361   2.7355176  70.1175986
  39.8043089   1.3716785  70.7055296  34.9657580   1.9816108  75.4457592
  34.8143086   1.7526660  74.5287675  34.9562259   2.9386710  75.4588937
  31.7342916  -0.4451979  70.4303858  32.6634976  -0.2940819  70.2572825
  31.3133946  -0.3567958  69.5752505  30.5331248   3.5798686  68.2002396
  30.3942334   3.2117470  69.0728334  29.7445844   4.0946325  68.0286354
  31.1279400   8.6807782  59.5427932  31.3031156   8.2095825  60.3573555
  30.4412188   9.3073548  59.7709193  32.0836463   2.9580288  65.5891234
  31.7486296   2.9181058  66.4848883  31.5840409   2.2925004  65.1161644
  35.0195655   0.3036323  55.8628293  34.4024826  -0.4216849  55.7661346
  34.5512143   1.0645683  55.5195367  28.6863008  -1.9232122  70.6027494
  29.3962626  -2.5638930  70.5614113  28.6432316  -1.6719228  71.5253675
  36.6749787   5.0135231  73.5234074  36.6162333   4.3294451  72.8564657
  37.0769305   5.7554221  73.0714700  25.6940485  11.8297145  66.3167792
  25.9337084  12.4615669  66.9946811  24.8509682  11.4785185  66.6033152
  36.6767194   2.9774815  71.7548053  35.7893973   2.6400737  71.8774452
  37.2465745   2.2457846  71.9916819  30.2068347   7.6376267  68.7209296
  30.1338519   8.4431239  69.2328601  29.7645740   7.8368233  67.8957318
  29.9958127   6.8748037  62.2312118  29.2125649   7.4169717  62.3250343
  30.6950872   7.3922017  62.6306359  41.1584534  -1.6116968  66.5164615
  41.1474411  -0.7292252  66.1458548  40.2901914  -1.9645417  66.3219152
  32.6667031   7.5363101  70.8767455  33.3795003   8.1710566  70.8043357
  32.1757059   7.6326967  70.0607457  34.3884558   1.4414354  62.4484747
  33.4540836   1.5615816  62.2789451  34.5661226   0.5386821  62.1844757
  37.7757109  -2.7168327  62.9834781  38.2417561  -1.8840335  62.9095084
  38.2264610  -3.1823345  63.6880039  27.7178944   5.2857545  71.6973026
  28.4188404   5.9194028  71.8502420  27.2474059   5.6272276  70.9368665
  35.8433340   3.6275495  59.9820933  36.1193184   3.5132089  60.8914807
  34.9737839   3.2292979  59.9433106  35.5180230  -2.1597848  69.5225576
  34.8651681  -1.9121940  68.8678029  35.8960610  -2.9733710  69.1888054
  32.4787404   7.8761845  63.6253747  32.6609799   7.0583501  64.0881499
  33.3020390   8.0929538  63.1878637  32.8129570   6.8030031  60.8868795
  33.3417336   6.2922485  60.2738957  33.0757789   6.4872561  61.7514328
  23.3146662   4.8193900  68.6304129  23.9000099   4.0737588  68.7632033
  23.1171501   5.1297857  69.5140793  26.1685318   7.8545147  63.6466571
  25.4995693   8.3391275  63.1630611  26.0298187   8.1014368  64.5609950
  30.3090586   9.8888891  70.2449229  30.8608894  10.0520512  71.0098315
  30.6496780  10.4793329  69.5729254  35.1601460   4.7150148  76.0997884
  35.7041364   5.3280106  75.6052839  34.5788305   5.2729727  76.6164897
  33.4458973   7.8370866  67.2312912  33.3210113   7.0360606  66.7223857
  34.1038065   8.3317060  66.7426881  35.5093882   5.6379886  68.8592462
  34.5624217   5.5185238  68.7870788  35.8576655   4.7502384  68.9418723
  32.5140315   5.4332603  65.0596814  32.3665278   4.5049310  65.2404384
  33.3393809   5.4552693  64.5753889  36.1174437   6.2561161  66.1461687
  37.0420984   6.0504023  66.0086138  35.9489740   6.0077562  67.0551028
  35.9069753   6.7746829  61.5023778  36.0806631   6.2093251  60.7497631
  36.3998644   7.5747724  61.3203268  41.7609144  -0.4616748  63.1214078
  42.2040290  -1.2109423  62.7233201  40.8835655  -0.4706612  62.7387810
  36.8944926   6.0913593  58.6020676  37.5895830   6.7120286  58.8207991
  37.2368076   5.2408944  58.8773054  38.7936349   3.5413299  60.1308007
  39.3187673   3.8800571  59.4057327  38.7058701   2.6060314  59.9471142
  30.4556397   7.4547372  72.2597884  30.7643524   7.2096519  73.1320583
  31.2531880   7.6594011  71.7716754  30.4777010   9.6085282  64.4903260
  30.0382000   9.1161661  65.1836117  31.2285126   9.0658250  64.2495336
  22.9569349   5.7996823  64.4927888  23.7827368   5.5000595  64.1126532
  22.6063401   5.0304445  64.9417677  27.9250882   5.1523291  66.5625562
  27.3030891   4.4893996  66.2627790  28.5955749   5.1784423  65.8799210
  21.1577954   3.7183149  65.4516822  20.3209862   3.2905324  65.2700823
  21.1301599   3.9115593  66.3887613  38.4830255   4.1746202  75.4359205
  37.6925799   4.1570341  74.8963704  38.2463609   4.7134496  76.1908242
  38.6028130   1.0238669  72.7491934  38.6526135   0.8588676  73.6907456
  38.4942053   0.1565928  72.3589814  27.4864389   3.7027214  60.0384023
  27.6352509   4.3862679  59.3850695  28.2930832   3.6832304  60.5533478
  35.8931892  -2.9930403  74.0651240  36.7941755  -3.1323938  73.7735238
  35.9679867  -2.8275948  75.0049418  40.1046327   3.4435610  72.9933955
  39.8131135   3.8065591  73.8297416  39.4918458   2.7302618  72.8147287
  41.3042009   1.0088490  65.5136525  42.1388900   1.4478294  65.6774086
  41.4401138   0.5327143  64.6944771  38.3533515  -1.4331775  71.4614013
  38.8287637  -1.2404129  70.6532865  37.4299080  -1.3772589  71.2157397
  25.2417022  -0.2707608  61.0445091  24.9963064  -1.1745278  61.2425302
  25.4112936  -0.2690458  60.1024569  30.9859794   6.1975345  57.5095770
  30.4133761   6.8165532  57.0566242  31.5592588   6.7474707  58.0435692
  37.0535184  -4.5566015  69.6942319  38.0052607  -4.4567917  69.7154543
  36.8838634  -5.3487747  70.2040403  35.0749563  -7.4710432  69.8801720
  34.4799496  -7.1905419  69.1848208  34.7899260  -6.9816531  70.6518461
  34.2057054   6.4812495  58.6404352  35.1387727   6.4158057  58.8437228
  34.1180267   7.3168762  58.1818885  36.8345071   5.7978365  55.6008300
  36.7558702   5.4638229  56.4944058  37.6554737   6.2900133  55.5999772
  39.5323262  -1.3359895  68.8084618  39.4999582  -2.2743895  68.9944302
  40.1423885  -1.2575859  68.0750443  31.3706593  -2.4663842  54.8511822
  32.3165697  -2.5957634  54.9200240  30.9920838  -3.2049181  55.3281251
  39.6817750  -4.5448852  68.8542902  39.1656799  -5.3290395  68.6672830
  40.5657699  -4.8730135  69.0189421  45.3499812  -0.2743889  67.9490655
  46.0803200  -0.5358600  68.5098358  44.7406757  -1.0115167  67.9892723
  43.4315109  -2.1336026  68.5465106  42.7048272  -2.2680061  67.9381598
  43.0162396  -1.8259197  69.3521824  31.2545285   1.5853904  76.3112479
  32.1748295   1.7632503  76.5052526  31.2194868   0.6409949  76.1592179
  24.2507358  -0.5045062  68.9535261  24.4693367   0.4272046  68.9723294
  24.6633132  -0.8637087  69.7390064  22.2552453   0.3313663  65.0824890
  22.2323141   0.4301350  64.1306774  22.5653089   1.1778813  65.4042057
  24.9139831   2.3889818  69.1971505  25.8683084   2.3573760  69.1301436
  24.7152354   1.9280441  70.0121731  25.5039213   0.9590934  71.7642303
  26.3232102   1.4535012  71.7877140  25.7776020   0.0422902  71.7359870
  35.2605809  -6.6498314  61.1270258  34.3731664  -6.3648663  60.9090453
  35.6759798  -6.8104551  60.2797535  38.6120345  -6.6251793  64.8424597
  39.3880735  -6.1355341  65.1149214  37.8868479  -6.1993739  65.2996467
  41.0492904  -5.9124174  65.8998538  41.6437394  -6.1528438  65.1891846
  41.1219487  -6.6317043  66.5272074  23.2690059   7.9309437  66.2141703
  23.1344527   7.1709838  65.6479701  22.8522122   8.6550337  65.7470492
  34.4049022   3.1146361  55.2218278  35.1084872   3.3196363  55.8375934
  33.6811671   3.6823123  55.4867362  35.2346833  -1.1343778  61.3420548
  35.1782034  -0.6775227  60.5028181  35.7875175  -1.8953093  61.1643391
  39.0451639  -5.3454046  62.1670668  38.7888573  -5.7457411  62.9978875
  38.4204507  -4.6310252  62.0420807  43.3563976  -2.6057973  64.6741959
  42.7963534  -2.5364784  65.4473521  42.7507480  -2.7816988  63.9541455
  26.4259185   8.8278754  66.4260145  26.3091569   9.7724187  66.3238836
  25.6051631   8.5252316  66.8145945  36.3135720   3.5528890  57.2716738
  37.1481324   3.1210088  57.0894213  36.1520063   3.3810904  58.1993633
  35.9681612   0.0561003  58.6373077  35.9130416  -0.1094725  57.6961522
  35.3427667   0.7637036  58.7935267  33.2827519   2.3609915  77.9626640
  34.1518679   2.5350567  77.6013275  32.8034271   3.1804332  77.8402370
  27.4513699   9.4807016  69.6416074  28.3540946   9.5130626  69.9582569
  27.2251069   8.5507467  69.6562410  29.2067301   8.2338003  66.3026152
  28.2562932   8.2339864  66.1890525  29.5099788   7.4870737  65.7862187
  44.9419995  14.0698541  67.3671915  45.5798405  13.9505288  66.6635255
  44.8240838  15.0179385  67.4259867  41.7509701  14.0225969  67.3033440
  41.4128213  13.9067034  66.4153974  42.6199469  13.6217134  67.2834446
  37.6096517  15.8761446  63.2930331  37.0461382  15.7851382  62.5246618
  37.4948912  15.0561350  63.7732823  42.2329484  15.1760821  73.2619645
  42.2218125  14.7813619  72.3900149  42.3950124  14.4426893  73.8553417
  35.1560949  17.3712637  66.1314551  35.9482241  17.0303462  65.7160850
  35.3957599  17.4807612  67.0516704  43.1896076  19.5432413  58.6044795
  42.5384055  20.1286494  58.2178809  43.9840438  20.0738608  58.6639833
  37.1151703  16.6321550  59.0031930  37.8882579  16.0850537  58.8644806
  37.4677102  17.4965800  59.2146391  38.9536745  17.9597933  72.2098829
  38.6626611  18.8643563  72.0945495  39.5893730  18.0014460  72.9242899
  39.8792952  15.3374781  68.8000189  40.4756524  15.1130804  68.0857152
  39.9367924  14.5959527  69.4025637  39.4517981  12.7914216  56.6350380
  39.7043501  12.2695738  55.8733843  38.5142540  12.6280362  56.7377063
  44.4961263  11.7949995  64.4425123  45.2824353  11.3769418  64.0915540
  44.7599968  12.6996087  64.6106771  44.6671341  17.2322845  59.1413780
  44.0317174  17.3057472  59.8534684  44.3368747  17.8216444  58.4632859
  49.8969690  11.7325228  65.3458101  50.6294862  11.1624445  65.5795931
  49.1409046  11.3446828  65.7864607  39.1714269  14.6942322  58.8374755
  39.0550527  14.0187226  59.5055839  39.2816529  14.2074696  58.0206908
  41.5145810  14.1552470  62.5421444  41.1504017  13.6283091  63.2534365
  42.3712926  13.7650939  62.3687929  47.4195111   5.4446802  69.8052710
  47.0878436   6.3142213  69.5813925  46.8240724   5.1283086  70.4846740
  41.1551297   9.1842369  57.5382792  41.3225700  10.0522606  57.9053263
  40.9648466   9.3469651  56.6144082  43.9126630  17.6459348  69.2048623
  43.6127353  18.5484387  69.0964430  43.5677690  17.3791531  70.0569776
  37.3639112  14.0973145  65.2385327  36.4389608  13.9649359  65.4463019
  37.6123525  14.8767364  65.7355270  47.3123774  10.1641888  66.8846060
  46.4040651  10.0957297  66.5904821  47.2611370  10.6413833  67.7127886
  41.1340518  11.6400027  58.5229459  41.0140143  12.0857078  59.3614940
  40.4393106  11.9885344  57.9642997  34.7247923  13.7406419  66.0729116
  34.8540304  13.9940897  66.9868528  34.0445374  14.3334127  65.7533771
  41.3864640  11.5831534  74.8280957  40.6097974  12.1425454  74.8183822
  42.0255203  12.0688317  75.3495827  49.1785421   8.3658327  68.6623934
  48.5359801   8.6590860  68.0163729  48.6740349   8.2511247  69.4677131
  46.8325584  12.1121500  59.3509793  47.7443440  12.3448887  59.1757491
  46.3235231  12.6958544  58.7884872  39.6411012  14.3916987  74.3898924
  40.3825697  14.9302031  74.1133748  38.9347998  15.0183276  74.5470476
  45.1166352  16.5346128  72.9871086  45.5249708  16.0928538  72.2425718
  44.3943613  15.9598755  73.2405279  41.4697422  11.4718735  70.3604643
  42.3158617  11.8958148  70.5039292  41.4096060  10.8152359  71.0543206
  45.4395167  17.0947318  66.7423375  44.8104029  17.2593033  66.0399443
  45.0520829  17.5088928  67.5134339  49.3184398  18.0301756  64.0967738
  48.6335437  18.4100658  63.5464772  49.4028248  18.6397083  64.8299686
  44.6196867   9.1323103  72.0185816  44.3757799   9.8865163  71.4820092
  44.8956798   9.5108450  72.8533063  46.5735330  15.6761715  70.6963082
  46.7852225  16.3193475  70.0197463  46.5265078  14.8424032  70.2285012
  44.1761559   8.2879536  67.5999654  43.3146038   8.5860789  67.8916392
  44.2023994   8.5049935  66.6680687  40.9923128  16.8321726  64.0073460
  41.4561474  17.1109429  63.2178082  40.7279927  15.9305171  63.8246551
  37.8847209  16.3793208  66.9453223  38.4548567  16.8080476  66.3070708
  38.4755321  16.0975793  67.6437409  39.9292014  12.9544879  60.8163025
  40.6316058  13.4065922  61.2836951  39.5972643  12.3128698  61.4442918
  38.3772376  11.5456635  75.1914234  37.7471037  12.2272916  75.4249631
  38.2708464  11.4339717  74.2467373  33.6717348  11.2128431  66.1180159
  32.8816402  11.4685960  65.6420269  34.1628596  12.0276769  66.2232199
  47.6881158  18.5533671  68.8685439  48.5098602  18.1513858  68.5868121
  47.6843561  18.4501905  69.8201555  35.6232094  11.5773011  63.0763635
  34.8263257  11.6891705  63.5947131  35.3957686  11.9159663  62.2104526
  41.4537761  18.1017714  71.0246150  41.5182194  18.5638121  71.8604322
  40.7448685  17.4715079  71.1528460  31.9555051  11.4658922  68.5495149
  32.2063090  12.3505932  68.8152725  32.4914600  11.2863523  67.7770241
  55.7787151  14.8972419  65.2170411  55.0250859  14.3279817  65.0614415
  55.9134692  14.8635084  66.1641046  41.1685779  19.7685821  60.8925130
  41.0331454  20.6137357  61.3209978  41.7095592  19.9705099  60.1291064
  37.6553119   5.8477401  77.5539485  37.2620064   5.2943600  78.2287130
  38.4719259   6.1587980  77.9446003  34.6215176  17.2861259  61.4653055
  35.1339697  18.0804510  61.6158620  35.2737889  16.5887550  61.3986657
  36.4310061  20.4027016  63.5475808  36.6076690  21.3244980  63.3596792
  37.2266895  20.0885435  63.9770188  40.5721080   7.2635280  75.1459742
  41.3130793   7.8642434  75.0664204  40.8039003   6.5212918  74.5877785
  35.7162418  12.4491648  73.4237972  35.6015933  11.5476905  73.7245071
  34.8606935  12.6955344  73.0722788  42.7954255  20.3909388  75.0225472
  42.3518110  19.6045767  74.7046377  43.4571469  20.5788538  74.3569363
  37.5541377  21.9205190  69.5486151  38.1048802  21.7922253  68.7763145
  36.7152853  22.2200079  69.1981044  44.8935494  20.6712188  73.0506874
  44.8753969  21.4921069  72.5587143  45.8155414  20.5466263  73.2757015
  41.3508548  18.1856317  73.8930382  41.8836884  17.4244606  73.6629690
  40.8222629  17.8929969  74.6354536  44.5178243   3.2916383  69.4224024
  44.1742512   4.1818025  69.3463134  44.8857205   3.1018041  68.5593609
  32.5864093  15.6149914  62.2412626  33.4239315  16.0246922  62.0246334
  32.7642361  14.6749356  62.2112820  44.4828525  13.2824994  57.9296459
  43.9675149  14.0529599  58.1684846  44.2105834  12.6090131  58.5529520
  42.0675636   8.1274695  62.9881697  41.2117233   7.7381546  62.8087336
  42.4802588   8.2066656  62.1281483  43.5974783   5.6621038  67.3873257
  43.0939579   5.6251174  66.5741062  43.8905390   6.5713781  67.4469914
  39.8417669   5.7459768  66.3939439  40.7070666   5.5502577  66.0345328
  39.9095178   5.5170120  67.3208795  49.4562799  16.0357349  59.8649632
  48.6792242  15.6968509  59.4204794  50.1354280  16.0409972  59.1904597
  44.2714829  11.1552087  59.7556240  43.9664964  11.4698236  60.6066383
  45.2245271  11.2333506  59.7983573  42.7161260  17.3142310  61.4049194
  42.1882622  16.5795069  61.0922431  42.2148763  18.0916986  61.1589162
  47.6954106  15.5091330  66.5216240  47.0377781  16.1990592  66.6096369
  48.4994506  15.8987762  66.8650227  37.4479988   7.9761976  63.7655805
  38.0223740   7.7537158  63.0328998  38.0350970   8.0450671  64.5184407
  46.5059565  13.8635703  64.5720182  47.0191447  14.4965695  65.0741892
  47.1560789  13.2636899  64.2063542  37.7749575  10.0066437  57.7851691
  36.9386887  10.3441124  58.1060965  37.6354345   9.8715417  56.8478828
  39.7502656   4.8503225  62.4930875  39.0967068   4.5352242  61.8687490
  39.7083130   4.2278966  63.2190698  40.8613861  15.1322520  54.4084167
  39.9540922  14.9011774  54.6075316  41.3584893  14.3360139  54.5958149
  43.7681939  23.8420027  57.3280853  43.0943638  24.1451724  57.9365811
  44.1547761  24.6449108  56.9786310  42.9840396  11.3385159  66.8178522
  42.0662957  11.5600106  66.6600211  43.4000540  11.4131469  65.9590230
  43.7675444  12.7376574  61.9481203  44.5147263  13.2497971  61.6388325
  44.0367033  12.4160627  62.8085596  42.0402094  15.2335115  58.9308157
  41.1313313  14.9494148  59.0280627  42.0697178  15.6534194  58.0711464
  47.2721361  18.8441704  62.6999325  46.8183689  18.0032614  62.7564515
  46.6415328  19.4803103  63.0374105  46.2154281   9.7733691  63.9299992
  45.4777038   9.2611077  64.2610235  46.4681055   9.3334072  63.1183269
  45.7154301  20.6818201  63.6349143  46.0077275  21.2423258  62.9161508
  46.2252921  20.9746762  64.3902302  46.3165908   2.5509943  64.5241761
  46.6224785   1.6907306  64.2367676  47.0418513   3.1427563  64.3240755
  32.6090264  12.9540629  62.9123359  32.4114664  12.3609990  62.1874426
  32.0536928  12.6492839  63.6299298  40.5886988  12.8463736  65.0317952
  40.6435598  11.8937572  64.9560429  39.7778190  13.0023175  65.5159251
  41.7378182  16.7743859  56.2696236  41.2997612  16.0579718  55.8101873
  42.4788623  17.0019973  55.7081327  38.5279348  11.4640795  62.7908331
  37.7147213  11.7634966  63.1973523  39.0238342  11.0696484  63.5082814
  40.6787926  21.4598552  64.7242596  40.6364105  21.6859399  63.7951128
  41.5950625  21.2261927  64.8728397  44.1253560  11.9282620  71.6223225
  44.4802947  12.1554093  72.4817691  44.7725691  12.2600997  71.0000480
  49.8551297  15.0501056  62.3272554  49.7169195  15.2402652  61.3993743
  49.4987515  15.8120439  62.7840605  38.0193423   9.0359151  68.4069566
  38.6592802   8.8947910  67.7092530  37.1870953   8.7493664  68.0308168
  49.8820676  17.1177583  67.3383826  50.3157183  17.0252872  68.1866880
  50.5952257  17.0935083  66.7003842  38.7953727  18.3361581  64.5204559
  39.5894325  17.8411901  64.3187134  38.0845419  17.8079444  64.1572264
  43.6148571  20.7179677  68.8716926  43.6685593  21.2870613  69.6394642
  42.7463352  20.8881562  68.5070963  35.1036490  12.4804663  60.5964311
  34.1734078  12.4189119  60.8134273  35.1993962  11.9580616  59.8000953
  35.0222039   9.0059476  63.1842553  35.2828856   9.9204809  63.0751713
  35.8439211   8.5383918  63.3339166  36.4946964  10.4197233  70.3541378
  37.1670018  10.2114595  69.7054026  35.6676751  10.2219319  69.9146610
  50.7436226  17.1601283  69.8716711  50.9372116  18.0647094  70.1175986
  50.6436844  16.7008702  70.7055296  42.3972536   7.0459174  72.3707038
  41.7500452   7.7449124  72.2771515  43.1673552   7.4795318  72.7383287
  45.8051334  17.3108026  75.4457592  45.6536841  17.0818578  74.5287675
  45.7956014  18.2678628  75.4588937  42.5736671  14.8839939  70.4303858
  43.5028731  15.0351098  70.2572825  42.1527701  14.9723960  69.5752505
  41.3725003  18.9090603  68.2002396  41.2336088  18.5409388  69.0728334
  40.5839599  19.4238243  68.0286354  41.9673155  24.0099700  59.5427932
  42.1424910  23.5387743  60.3573555  41.2805943  24.6365466  59.7709193
  42.9230218  18.2872206  65.5891234  42.5880050  18.2472976  66.4848883
  42.4234163  17.6216922  65.1161644  36.8974462  13.6939836  71.1143815
  36.7594260  12.9620075  71.7155354  37.8079385  13.6048736  70.8328002
  45.8589409  15.6328240  55.8628293  45.2418580  14.9075068  55.7661346
  45.3905898  16.3937601  55.5195367  39.5256762  13.4059795  70.6027494
  40.2356381  12.7652988  70.5614113  39.4826071  13.6572690  71.5253675
  47.5143541  20.3427149  73.5234074  47.4556087  19.6586369  72.8564657
  47.9163059  21.0846139  73.0714700  38.2385696  10.3925013  72.4223134
  37.7023053   9.9415752  73.0744730  37.6502405  10.5270922  71.6793598
  36.5334240  27.1589062  66.3167792  36.7730838  27.7907587  66.9946811
  35.6903436  26.8077103  66.6033152  37.6487955   9.8513665  54.9849597
  36.7717422   9.7302465  54.6211844  38.1245708   9.0599743  54.7328486
  47.5160948  18.3066733  71.7548053  46.6287727  17.9692654  71.8774452
  48.0859499  17.5749764  71.9916819  29.1690095  14.6390824  65.0791105
  29.8561135  14.3252554  64.4912120  29.0138224  15.5432189  64.8058356
  33.9724818   9.5281021  69.5076128  33.8883006   8.9206690  68.7726538
  33.1507524  10.0190039  69.5085625  41.0462102  22.9668185  68.7209296
  40.9732273  23.7723156  69.2328601  40.6039495  23.1660151  67.8957318
  40.8351881  22.2039955  62.2312118  40.0519403  22.7461635  62.3250343
  41.5344627  22.7213935  62.6306359  44.1448531   8.0134584  64.8746323
  44.6417231   7.2604547  64.5547394  43.3735513   8.0498901  64.3089533
  51.9978289  13.7174950  66.5164615  51.9868165  14.5999665  66.1458548
  51.1295668  13.3646501  66.3219152  43.5060785  22.8655019  70.8767455
  44.2188757  23.5002484  70.8043357  43.0150814  22.9618885  70.0607457
  45.2278312  16.7706272  62.4484747  44.2934591  16.8907734  62.2789451
  45.4054981  15.8678738  62.1844757  40.7283500  10.1551967  64.6018008
  40.3581288   9.6023008  65.2898914  41.2242593   9.5510101  64.0493008
  48.6150864  12.6123591  62.9834781  49.0811316  13.4451583  62.9095084
  49.0658364  12.1468572  63.6880039  38.5572699  20.6149462  71.6973026
  39.2582158  21.2485945  71.8502420  38.0867814  20.9564194  70.9368665
  46.6827095  18.9567412  59.9820933  46.9586939  18.8424007  60.8914807
  45.8131593  18.5584897  59.9433106  46.5867526   4.9804178  67.0225682
  45.6730606   5.2108405  67.1907889  47.0160628   5.0642622  67.8739715
  46.3573985  13.1694070  69.5225576  45.7045435  13.4169977  68.8678029
  46.7354365  12.3558208  69.1888054  43.3181159  23.2053763  63.6253747
  43.5003553  22.3875419  64.0881499  44.1414145  23.4221455  63.1878637
  43.6523324  22.1321948  60.8868795  44.1811091  21.6214403  60.2738957
  43.9151544  21.8164478  61.7514328  42.4061558  13.9113881  76.0091613
  41.7302195  13.8108010  76.6793989  43.2289192  13.7553095  76.4727611
  34.1540417  20.1485817  68.6304129  34.7393854  19.4029505  68.7632033
  33.9565255  20.4589774  69.5140793  28.7458072  12.7191418  67.3508572
  28.7842171  12.1855008  68.1445690  28.2398364  12.1926623  66.7319549
  41.1484341  25.2180808  70.2449229  41.7002649  25.3812430  71.0098315
  41.4890534  25.8085246  69.5729254  36.1248834   7.5655958  70.8471114
  36.1890160   8.4270789  70.4348512  36.0615954   6.9529960  70.1143473
  35.6001106   9.6379091  74.4944148  36.2273145   9.2556168  75.1081673
  34.7429025   9.4193293  74.8599841  45.9995215  20.0442066  76.0997884
  46.5435119  20.6572024  75.6052839  45.4182060  20.6021644  76.6164897
  32.3766649  11.4455520  60.4262503  32.6720090  10.5366198  60.3729557
  31.4754685  11.4243259  60.1043506  44.2852728  23.1662784  67.2312912
  44.1603867  22.3652524  66.7223857  44.9431819  23.6608977  66.7426881
  35.9060896   9.5211516  66.4090052  35.1847482  10.1347484  66.2697525
  36.6954152  10.0569281  66.3306698  46.3487636  20.9671804  68.8592462
  45.4017972  20.8477155  68.7870788  46.6970409  20.0794302  68.9418723
  38.7087210   6.8565943  72.6830704  39.2321612   7.1028239  73.4457013
  38.4899543   7.6885978  72.2633841  34.1054491   9.1269617  60.5501828
  33.7767197   8.2466996  60.3676934  34.4593861   9.0717286  61.4378218
  43.3534070  20.7624520  65.0596814  43.2059032  19.8341228  65.2404384
  44.1787563  20.7844611  64.5753889  37.2196314   9.4142587  60.9177306
  37.5592386   9.9428509  60.1955914  37.6668434   9.7522993  61.6935873
  46.9568191  21.5853079  66.1461687  47.8814739  21.3795940  66.0086138
  46.7883495  21.3369480  67.0551028  39.9139755   7.7979638  70.3680374
  39.5736575   6.9987451  70.7701054  39.2078761   8.0981349  69.7957207
  40.5656227   4.8828950  68.8207697  41.3882296   4.4089429  68.6986587
  40.8094290   5.6619434  69.3206383  39.2064461   7.9117209  59.1170599
  39.9272824   8.2898462  58.6134316  38.5829765   8.6306086  59.2205577
  43.3495584   8.6162358  60.0528931  43.5659198   9.4986996  59.7517759
  42.8689651   8.2248571  59.3234573  38.0894805  11.5748071  66.6299676
  37.9439386  11.8888374  67.5223957  37.6120009  12.1932971  66.0770574
  39.9491188   8.5650619  66.6780565  39.9352757   7.6691712  66.3412863
  40.6663616   8.5721283  67.3118851  41.8017319   8.9987959  68.7233693
  41.5435097   9.9205030  68.7218023  41.2702359   8.6018394  69.4134157
  46.7463508  22.1038746  61.5023778  46.9200385  21.5385169  60.7497631
  47.2392399  22.9039641  61.3203268  32.5640467  14.1153415  69.5687337
  32.0193936  14.8913223  69.7007611  33.4419817  14.4624220  69.4106458
  39.3528084   7.4464999  61.9468135  39.4743995   6.5181646  62.1459023
  39.0630127   7.4603685  61.0346451  42.2219275   5.1319910  65.0834855
  42.2440971   5.1959243  64.1286835  42.6387334   4.2924418  65.2775361
  52.6002899  14.8675169  63.1214078  53.0434045  14.1182495  62.7233201
  51.7229409  14.8585306  62.7387810  47.7338680  21.4205511  58.6020676
  48.4289585  22.0412203  58.8207991  48.0761830  20.5700862  58.8773054
  33.3506489  13.2423312  72.4617494  32.6088225  13.3905947  73.0482124
  33.0299234  13.5031577  71.5984243  49.6330103  18.8705216  60.1308007
  50.1581427  19.2092489  59.4057327  49.5452456  17.9352232  59.9471142
  41.2950152  22.7839290  72.2597884  41.6037278  22.5388437  73.1320583
  42.0925634  22.9885928  71.7716754  41.3170764  24.9377200  64.4903260
  40.8775754  24.4453578  65.1836117  42.0678881  24.3950167  64.2495336
  38.7644636  20.4815209  66.5625562  38.1424645  19.8185914  66.2627790
  39.4349503  20.5076341  65.8799210  31.9971708  19.0475067  65.4516822
  31.1603616  18.6197241  65.2700823  31.9695353  19.2407510  66.3887613
  38.8369164   8.9596997  76.1558068  38.8857319   9.8359120  75.7735838
  39.3791678   8.4174390  75.5829711  49.3224009  19.5038120  75.4359205
  48.5319553  19.4862259  74.8963704  49.0857364  20.0426414  76.1908242
  49.4421884  16.3530586  72.7491934  49.4919889  16.1880594  73.6907456
  49.3335808  15.4857845  72.3589814  38.3258143  19.0319132  60.0384023
  38.4746263  19.7154596  59.3850695  39.1324587  19.0124222  60.5533478
  46.7325647  12.3361514  74.0651240  47.6335510  12.1967979  73.7735238
  46.8073621  12.5015969  75.0049418  41.0668452   9.7128369  72.9104427
  40.1971762  10.0061935  72.6387015  41.3027932  10.2968814  73.6311690
  50.9440081  18.7727528  72.9933955  50.6524890  19.1357508  73.8297416
  50.3312213  18.0594536  72.8147287  52.1435764  16.3380408  65.5136525
  52.9782655  16.7770212  65.6774086  52.2794892  15.8619061  64.6944771
  49.1927269  13.8960142  71.4614013  49.6681391  14.0887789  70.6532865
  48.2692835  13.9519328  71.2157397  36.0810776  15.0584310  61.0445091
  35.8356818  14.1546640  61.2425302  36.2506691  15.0601460  60.1024569
  43.7707486   5.9307986  70.4269847  44.2889430   6.6669013  70.1016336
  43.4162619   6.2371979  71.2616606  35.3506424  10.7912667  58.5431253
  34.6575669  10.8657022  57.8871289  35.1058176  10.0273011  59.0652770
  44.0220080   2.3508269  65.9470744  44.3021834   1.6831458  66.5731170
  44.8070687   2.5437364  65.4345407  41.8253549  21.5267262  57.5095770
  41.2527516  22.1457450  57.0566242  42.3986342  22.0766624  58.0435692
  47.8928938  10.7725903  69.6942319  48.8446361  10.8724000  69.7154543
  47.7232389   9.9804171  70.2040403  45.9143318   7.8581486  69.8801720
  45.3193250   8.1386499  69.1848208  45.6293015   8.3475387  70.6518461
  45.0450808  21.8104413  58.6404352  45.9781482  21.7449974  58.8437228
  44.9574021  22.6460679  58.1818885  47.6738825  21.1270283  55.6008300
  47.5952457  20.7930147  56.4944058  48.4948492  21.6192051  55.5999772
  50.3717016  13.9932022  68.8084618  50.3393336  13.0548023  68.9944302
  50.9817640  14.0716059  68.0750443  42.2100347  12.8628075  54.8511822
  43.1559452  12.7334283  54.9200240  41.8314592  12.1242737  55.3281251
  50.5211505  10.7843066  68.8542902  50.0050553  10.0001522  68.6672830
  51.4051453  10.4561782  69.0189421  48.1822232   4.5284081  64.8138714
  47.9847053   4.2199169  65.6982046  48.7921937   5.2545720  64.9436644
  56.1893566  15.0548029  67.9490655  56.9196955  14.7933317  68.5098358
  55.5800512  14.3176751  67.9892723  54.2708863  13.1955892  68.5465106
  53.5442027  13.0611857  67.9381598  53.8556150  13.5032720  69.3521824
  42.0939040  16.9145821  76.3112479  43.0142049  17.0924420  76.5052526
  42.0588623  15.9701867  76.1592179  40.3943264  10.7878052  54.7866708
  39.4874720  10.4911164  54.8629421  40.6719245  10.4907870  53.9200994
  31.3121205  12.1084415  65.2365754  30.9923989  11.2549723  64.9440128
  30.7654633  12.3232993  65.9923721  35.0901112  14.8246856  68.9535261
  35.3087122  15.7563964  68.9723294  35.5026886  14.4654830  69.7390064
  42.0105330   5.3314941  60.9410949  41.2006058   4.9862026  61.3166195
  42.6989747   5.0222485  61.5298560  43.9395878   4.4092988  62.5635246
  44.4926917   4.8288442  63.2225269  44.1765965   3.4828736  62.6058202
  39.9628978  10.3980062  78.3438009  39.8625704  11.3474419  78.2750101
  39.7450520  10.0698301  77.4714080  39.1642049   7.6464987  54.9278687
  40.0261213   7.9719885  55.1874504  39.3492393   6.8596483  54.4151753
  31.1809465  15.7287327  67.2058876  30.4872936  15.3141279  66.6928830
  31.9282456  15.7707863  66.6092295  47.3174685   6.5193513  62.0713910
  46.7373354   7.1778317  61.6891962  47.0510618   5.6970858  61.6601327
  45.7678252   5.9198571  64.2735230  46.2678030   6.0315106  63.4649549
  46.4113860   5.6159624  64.9136039  39.8260248  13.8277201  77.1603071
  39.3427329  14.6277561  77.3666960  39.9121187  13.8385146  76.2070515
  33.0946207  15.6605580  65.0824890  33.0716895  15.7593268  64.1306774
  33.4046844  16.5070731  65.4042057  35.7533585  17.7181735  69.1971505
  36.7076839  17.6865678  69.1301436  35.5546109  17.2572359  70.0121731
  36.3432967  16.2882851  71.7642303  37.1625856  16.7826930  71.7877140
  36.6169775  15.3714820  71.7359870  46.0999563   8.6793604  61.1270258
  45.2125418   8.9643254  60.9090453  46.5153552   8.5187367  60.2797535
  49.4514100   8.7040125  64.8424597  50.2274490   9.1936577  65.1149214
  48.7262234   9.1298179  65.2996467  51.8886658   9.4167744  65.8998538
  52.4831149   9.1763480  65.1891846  51.9613242   8.6974874  66.5272074
  45.2442777  18.4438278  55.2218278  45.9478627  18.6488281  55.8375934
  44.5205426  19.0115040  55.4867362  46.0740587  14.1948140  61.3420548
  46.0175789  14.6516691  60.5028181  46.6268930  13.4338824  61.1643391
  49.8845393   9.9837871  62.1670668  49.6282327   9.5834507  62.9978875
  49.2598261  10.6981665  62.0420807  54.1957731  12.7233945  64.6741959
  53.6357289  12.7927134  65.4473521  53.5901234  12.5474929  63.9541455
  37.2652940  24.1570672  66.4260145  37.1485324  25.1016104  66.3238836
  36.4445386  23.8544233  66.8145945  47.1529474  18.8820808  57.2716738
  47.9875078  18.4502006  57.0894213  46.9913817  18.7102821  58.1993633
  46.8075366  15.3852921  58.6373077  46.7524170  15.2197192  57.6961522
  46.1821422  16.0928954  58.7935267  31.5967881  10.6220985  72.4634500
  32.2426745  10.1119939  72.9521725  31.3885033  11.3589667  73.0377925
  44.1221274  17.6901833  77.9626640  44.9912433  17.8642485  77.6013275
  43.6428025  18.5096250  77.8402370  40.1171492   4.8861030  58.2158396
  40.1050162   5.8302870  58.3726667  41.0094914   4.7031175  57.9217857
  38.2907454  24.8098934  69.6416074  39.1934701  24.8422544  69.9582569
  38.0644824  23.8799385  69.6562410  40.0461056  23.5629920  66.3026152
  39.0956687  23.5631782  66.1890525  40.3493542  22.8162655  65.7862187
  43.9323611   1.4803807  62.4704333  43.1656007   0.9262293  62.6161015
  44.3434316   1.5525675  63.3318484  35.9365372   7.7688602  76.5609514
  36.7996834   7.4125407  76.7712838  35.3630783   7.4302497  77.2484918
  55.7813749  29.3990459  67.3671915  56.4192159  29.2797206  66.6635255
  55.6634592  30.3471303  67.4259867  52.5903456  29.3517887  67.3033440
  52.2521967  29.2358951  66.4153974  53.4593224  28.9509052  67.2834446
  48.4490271  31.2053363  63.2930331  47.8855136  31.1143300  62.5246618
  48.3342666  30.3853268  63.7732823  53.0723239  30.5052739  73.2619645
  53.0611879  30.1105537  72.3900149  53.2343878  29.7718811  73.8553417
  45.9954703  32.7004555  66.1314551  46.7875995  32.3595379  65.7160850
  46.2351353  32.8099530  67.0516704  54.0289830  34.8724331  58.6044795
  53.3777810  35.4578411  58.2178809  54.8234193  35.4030526  58.6639833
  47.9545457  31.9613468  59.0031930  48.7276333  31.4142455  58.8644806
  48.3070856  32.8257717  59.2146391  49.7930500  33.2889850  72.2098829
  49.5020366  34.1935481  72.0945495  50.4287484  33.3306378  72.9242899
  50.7186707  30.6666699  68.8000189  51.3150279  30.4422721  68.0857152
  50.7761678  29.9251444  69.4025637  50.2911735  28.1206134  56.6350380
  50.5437256  27.5987655  55.8733843  49.3536294  27.9572280  56.7377063
  55.3355018  27.1241913  64.4425123  56.1218107  26.7061336  64.0915540
  55.5993722  28.0288005  64.6106771  55.5065095  32.5614763  59.1413780
  54.8710928  32.6349389  59.8534684  55.1762502  33.1508362  58.4632859
  60.7363445  27.0617146  65.3458101  61.4688617  26.4916363  65.5795931
  59.9802801  26.6738746  65.7864607  50.0108024  30.0234240  58.8374755
  49.8944282  29.3479143  59.5055839  50.1210284  29.5366614  58.0206908
  52.3539565  29.4844387  62.5421444  51.9897772  28.9575008  63.2534365
  53.2106681  29.0942856  62.3687929  58.2588865  20.7738720  69.8052710
  57.9272190  21.6434131  69.5813925  57.6634479  20.4575004  70.4846740
  51.9945052  24.5134287  57.5382792  52.1619454  25.3814523  57.9053263
  51.8042221  24.6761569  56.6144082  54.7520385  32.9751266  69.2048623
  54.4521108  33.8776305  69.0964430  54.4071444  32.7083449  70.0569776
  48.2032866  29.4265063  65.2385327  47.2783363  29.2941277  65.4463019
  48.4517280  30.2059282  65.7355270  58.1517529  25.4933806  66.8846060
  57.2434406  25.4249214  66.5904821  58.1005124  25.9705751  67.7127886
  51.9734273  26.9691944  58.5229459  51.8533898  27.4148995  59.3614940
  51.2786861  27.3177262  57.9642997  45.5641677  29.0698336  66.0729116
  45.6934059  29.3232815  66.9868528  44.8839129  29.6626044  65.7533771
  52.2258394  26.9123452  74.8280957  51.4491728  27.4717372  74.8183822
  52.8648957  27.3980235  75.3495827  60.0179175  23.6950244  68.6623934
  59.3753555  23.9882778  68.0163729  59.5134104  23.5803165  69.4677131
  57.6719339  27.4413418  59.3509793  58.5837195  27.6740804  59.1757491
  57.1628986  28.0250462  58.7884872  50.4804767  29.7208905  74.3898924
  51.2219451  30.2593949  74.1133748  49.7741752  30.3475194  74.5470476
  55.9560106  31.8638045  72.9871086  56.3643462  31.4220456  72.2425718
  55.2337368  31.2890673  73.2405279  52.3091176  26.8010652  70.3604643
  53.1552372  27.2250066  70.5039292  52.2489814  26.1444277  71.0543206
  56.2788921  32.4239236  66.7423375  55.6497783  32.5884950  66.0399443
  55.8914583  32.8380846  67.5134339  60.1578153  33.3593674  64.0967738
  59.4729191  33.7392575  63.5464772  60.2422002  33.9689001  64.8299686
  55.4590622  24.4615021  72.0185816  55.2151554  25.2157081  71.4820092
  55.7350552  24.8400368  72.8533063  57.4129085  31.0053633  70.6963082
  57.6245980  31.6485393  70.0197463  57.3658833  30.1715949  70.2285012
  55.0155313  23.6171454  67.5999654  54.1539793  23.9152707  67.8916392
  55.0417748  23.8341852  66.6680687  51.8316883  32.1613644  64.0073460
  52.2955228  32.4401347  63.2178082  51.5673681  31.2597089  63.8246551
  48.7240964  31.7085126  66.9453223  49.2942321  32.1372394  66.3070708
  49.3149076  31.4267710  67.6437409  50.7685769  28.2836797  60.8163025
  51.4709812  28.7357840  61.2836951  50.4366397  27.6420615  61.4442918
  49.2166130  26.8748553  75.1914234  48.5864791  27.5564834  75.4249631
  49.1102218  26.7631635  74.2467373  44.5111103  26.5420349  66.1180159
  43.7210157  26.7977878  65.6420269  45.0022350  27.3568687  66.2232199
  58.5274912  33.8825588  68.8685439  59.3492356  33.4805776  68.5868121
  58.5237315  33.7793823  69.8201555  46.4625848  26.9064928  63.0763635
  45.6657012  27.0183623  63.5947131  46.2351440  27.2451581  62.2104526
  52.2931516  33.4309632  71.0246150  52.3575948  33.8930039  71.8604322
  51.5842440  32.8006997  71.1528460  42.7948806  26.7950840  68.5495149
  43.0456844  27.6797850  68.8152725  43.3308354  26.6155441  67.7770241
  66.6180906  30.2264337  65.2170411  65.8644614  29.6571735  65.0614415
  66.7528447  30.1927001  66.1641046  52.0079534  35.0977739  60.8925130
  51.8725208  35.9429275  61.3209978  52.5489346  35.2997017  60.1291064
  48.4946873  21.1769319  77.5539485  48.1013819  20.6235518  78.2287130
  49.3113014  21.4879897  77.9446003  47.2703816  35.7318933  63.5475808
  47.4470444  36.6536898  63.3596792  48.0660649  35.4177353  63.9770188
  51.4114834  22.5927198  75.1459742  52.1524548  23.1934351  75.0664204
  51.6432757  21.8504836  74.5877785  46.5556172  27.7783565  73.4237972
  46.4409687  26.8768823  73.7245071  45.7000690  28.0247262  73.0722788
  53.6348010  35.7201306  75.0225472  53.1911864  34.9337684  74.7046377
  54.2965224  35.9080456  74.3569363  48.3935131  37.2497107  69.5486151
  48.9442556  37.1214171  68.7763145  47.5546607  37.5491996  69.1981044
  55.7329248  36.0004106  73.0506874  55.7147723  36.8212987  72.5587143
  56.6549168  35.8758181  73.2757015  52.1902302  33.5148235  73.8930382
  52.7230639  32.7536523  73.6629690  51.6616383  33.2221887  74.6354536
  55.3571997  18.6208301  69.4224024  55.0136267  19.5109943  69.3463134
  55.7250960  18.4309959  68.5593609  43.4257848  30.9441831  62.2412626
  44.2633070  31.3538840  62.0246334  43.6036115  30.0041274  62.2112820
  55.3222280  28.6116912  57.9296459  54.8068903  29.3821517  58.1684846
  55.0499588  27.9382048  58.5529520  52.9069391  23.4566613  62.9881697
  52.0510987  23.0673463  62.8087336  53.3196343  23.5358574  62.1281483
  54.4368538  20.9912956  67.3873257  53.9333333  20.9543091  66.5741062
  54.7299144  21.9005699  67.4469914  50.6811423  21.0751686  66.3939439
  51.5464420  20.8794495  66.0345328  50.7488932  20.8462038  67.3208795
  60.2956554  31.3649267  59.8649632  59.5185997  31.0260426  59.4204794
  60.9748035  31.3701890  59.1904597  55.1108583  26.4844004  59.7556240
  54.8058719  26.7990153  60.6066383  56.0639025  26.5625424  59.7983573
  53.5555015  32.6434228  61.4049194  53.0276376  31.9086987  61.0922431
  53.0542518  33.4208904  61.1589162  58.5347861  30.8383248  66.5216240
  57.8771535  31.5282509  66.6096369  59.3388260  31.2279680  66.8650227
  48.2873742  23.3053894  63.7655805  48.8617494  23.0829075  63.0328998
  48.8744725  23.3742588  64.5184407  57.3453320  29.1927621  64.5720182
  57.8585201  29.8257613  65.0741892  57.9954544  28.5928816  64.2063542
  48.6143330  25.3358355  57.7851691  47.7780642  25.6733041  58.1060965
  48.4748099  25.2007335  56.8478828  50.5896410  20.1795143  62.4930875
  49.9360823  19.8644160  61.8687490  50.5476884  19.5570883  63.2190698
  51.7007615  30.4614438  54.4084167  50.7934677  30.2303691  54.6075316
  52.1978647  29.6652057  54.5958149  53.8234151  26.6677076  66.8178522
  52.9056712  26.8892023  66.6600211  54.2394294  26.7423387  65.9590230
  54.6069198  28.0668492  61.9481203  55.3541017  28.5789889  61.6388325
  54.8760788  27.7452545  62.8085596  52.8795848  30.5627033  58.9308157
  51.9707068  30.2786065  59.0280627  52.9090932  30.9826111  58.0711464
  58.1115116  34.1733622  62.6999325  57.6577443  33.3324532  62.7564515
  57.4809083  34.8095021  63.0374105  57.0548035  25.1025608  63.9299992
  56.3170792  24.5902994  64.2610235  57.3074809  24.6625990  63.1183269
  56.5548055  36.0110119  63.6349143  56.8471030  36.5715176  62.9161508
  57.0646676  36.3038680  64.3902302  57.1559663  17.8801860  64.5241761
  57.4618540  17.0199224  64.2367676  57.8812268  18.4719480  64.3240755
  43.4484019  28.2832547  62.9123359  43.2508419  27.6901907  62.1874426
  42.8930683  27.9784757  63.6299298  51.4280743  28.1755653  65.0317952
  51.4829352  27.2229490  64.9560429  50.6171945  28.3315092  65.5159251
  52.5771936  32.1035776  56.2696236  52.1391366  31.3871635  55.8101873
  53.3182377  32.3311891  55.7081327  49.3673102  26.7932713  62.7908331
  48.5540968  27.0926884  63.1973523  49.8632097  26.3988402  63.5082814
  51.5181680  36.7890470  64.7242596  51.4757859  37.0151316  63.7951128
  52.4344379  36.5553845  64.8728397  54.9647314  27.2574537  71.6223225
  55.3196702  27.4846011  72.4817691  55.6119445  27.5892914  71.0000480
  60.6945051  30.3792973  62.3272554  60.5562950  30.5694569  61.3993743
  60.3381270  31.1412356  62.7840605  48.8587177  24.3651069  68.4069566
  49.4986557  24.2239828  67.7092530  48.0264708  24.0785582  68.0308168
  60.7214431  32.4469500  67.3383826  61.1550937  32.3544789  68.1866880
  61.4346011  32.4227001  66.7003842  49.6347481  33.6653499  64.5204559
  50.4288080  33.1703819  64.3187134  48.9239173  33.1371362  64.1572264
  54.4542326  36.0471594  68.8716926  54.5079348  36.6162531  69.6394642
  53.5857107  36.2173480  68.5070963  45.9430245  27.8096581  60.5964311
  45.0127833  27.7481036  60.8134273  46.0387717  27.2872533  59.8000953
  45.8615794  24.3351394  63.1842553  46.1222611  25.2496727  63.0751713
  46.6832966  23.8675836  63.3339166  47.3340719  25.7489151  70.3541378
  48.0063772  25.5406513  69.7054026  46.5070505  25.5511237  69.9146610
  61.5829980  32.4893201  69.8716711  61.7765870  33.3939012  70.1175986
  61.4830598  32.0300620  70.7055296  53.2366291  22.3751092  72.3707038
  52.5894206  23.0741041  72.2771515  54.0067306  22.8087236  72.7383287
  56.6445089  32.6399944  75.4457592  56.4930595  32.4110495  74.5287675
  56.6349768  33.5970545  75.4588937  53.4130425  30.2131857  70.4303858
  54.3422485  30.3643016  70.2572825  52.9921455  30.3015877  69.5752505
  52.2118757  34.2382521  68.2002396  52.0729843  33.8701305  69.0728334
  51.4233353  34.7530160  68.0286354  53.7623972  33.6164124  65.5891234
  53.4273805  33.5764894  66.4848883  53.2627918  32.9508840  65.1161644
  47.7368216  29.0231754  71.1143815  47.5988014  28.2911992  71.7155354
  48.6473140  28.9340654  70.8328002  56.6983164  30.9620158  55.8628293
  56.0812335  30.2366986  55.7661346  56.2299652  31.7229518  55.5195367
  50.3650517  28.7351713  70.6027494  51.0750135  28.0944905  70.5614113
  50.3219825  28.9864608  71.5253675  58.3537296  35.6719066  73.5234074
  58.2949842  34.9878286  72.8564657  58.7556814  36.4138056  73.0714700
  49.0779451  25.7216931  72.4223134  48.5416808  25.2707669  73.0744730
  48.4896159  25.8562840  71.6793598  48.4881710  25.1805582  54.9849597
  47.6111176  25.0594383  54.6211844  48.9639463  24.3891661  54.7328486
  58.3554703  33.6358650  71.7548053  57.4681482  33.2984572  71.8774452
  58.9253254  32.9041681  71.9916819  40.0083850  29.9682742  65.0791105
  40.6954890  29.6544472  64.4912120  39.8531979  30.8724107  64.8058356
  44.8118572  24.8572939  69.5076128  44.7276761  24.2498608  68.7726538
  43.9901278  25.3481957  69.5085625  51.8855856  38.2960103  68.7209296
  51.8126028  39.1015074  69.2328601  51.4433249  38.4952068  67.8957318
  54.9842286  23.3426502  64.8746323  55.4810986  22.5896464  64.5547394
  54.2129267  23.3790819  64.3089533  62.8372043  29.0466868  66.5164615
  62.8261920  29.9291583  66.1458548  61.9689423  28.6938418  66.3219152
  54.3454540  38.1946937  70.8767455  55.0582512  38.8294401  70.8043357
  53.8544568  38.2910803  70.0607457  56.0672067  32.0998189  62.4484747
  55.1328345  32.2199652  62.2789451  56.2448735  31.1970656  62.1844757
  51.5677255  25.4843885  64.6018008  51.1975042  24.9314925  65.2898914
  52.0636347  24.8802019  64.0493008  59.4544618  27.9415509  62.9834781
  59.9205070  28.7743500  62.9095084  59.9052119  27.4760490  63.6880039
  49.3966453  35.9441380  71.6973026  50.0975913  36.5777863  71.8502420
  48.9261568  36.2856112  70.9368665  57.5220849  34.2859330  59.9820933
  57.7980693  34.1715924  60.8914807  56.6525348  33.8876815  59.9433106
  57.4261281  20.3096096  67.0225682  56.5124361  20.5400322  67.1907889
  57.8554382  20.3934540  67.8739715  57.1967739  28.4985988  69.5225576
  56.5439189  28.7461895  68.8678029  57.5748119  27.6850126  69.1888054
  54.1574913  38.5345681  63.6253747  54.3397308  37.7167337  64.0881499
  54.9807899  38.7513373  63.1878637  54.4917079  37.4613866  60.8868795
  55.0204845  36.9506320  60.2738957  54.7545298  37.1456396  61.7514328
  53.2455312  29.2405799  76.0091613  52.5695949  29.1399928  76.6793989
  54.0682946  29.0845012  76.4727611  44.9934171  35.4777735  68.6304129
  45.5787608  34.7321423  68.7632033  44.7959010  35.7881692  69.5140793
  39.5851826  28.0483335  67.3508572  39.6235926  27.5146926  68.1445690
  39.0792119  27.5218541  66.7319549  51.9878095  40.5472726  70.2449229
  52.5396403  40.7104348  71.0098315  52.3284289  41.1377164  69.5729254
  46.9642588  22.8947876  70.8471114  47.0283915  23.7562707  70.4348512
  46.9009709  22.2821878  70.1143473  46.4394861  24.9671008  74.4944148
  47.0666900  24.5848086  75.1081673  45.5822780  24.7485210  74.8599841
  56.8388969  35.3733984  76.0997884  57.3828873  35.9863942  75.6052839
  56.2575814  35.9313562  76.6164897  43.2160404  26.7747438  60.4262503
  43.5113845  25.8658116  60.3729557  42.3148439  26.7535177  60.1043506
  55.1246482  38.4954702  67.2312912  54.9997622  37.6944441  66.7223857
  55.7825574  38.9900895  66.7426881  46.7454651  24.8503434  66.4090052
  46.0241236  25.4639402  66.2697525  47.5347906  25.3861199  66.3306698
  57.1881391  36.2963722  68.8592462  56.2411726  36.1769073  68.7870788
  57.5364164  35.4086220  68.9418723  49.5480964  22.1857861  72.6830704
  50.0715366  22.4320157  73.4457013  49.3293297  23.0177895  72.2633841
  44.9448245  24.4561535  60.5501828  44.6160951  23.5758914  60.3676934
  45.2987616  24.4009204  61.4378218  54.1927824  36.0916438  65.0596814
  54.0452787  35.1633145  65.2404384  55.0181318  36.1136529  64.5753889
  48.0590068  24.7434505  60.9177306  48.3986141  25.2720426  60.1955914
  48.5062189  25.0814911  61.6935873  57.7961946  36.9144997  66.1461687
  58.7208493  36.7087858  66.0086138  57.6277249  36.6661398  67.0551028
  50.7533509  23.1271556  70.3680374  50.4130330  22.3279369  70.7701054
  50.0472515  23.4273267  69.7957207  51.4049981  20.2120868  68.8207697
  52.2276050  19.7381346  68.6986587  51.6488045  20.9911352  69.3206383
  50.0458216  23.2409127  59.1170599  50.7666578  23.6190379  58.6134316
  49.4223520  23.9598003  59.2205577  54.1889338  23.9454276  60.0528931
  54.4052953  24.8278913  59.7517759  53.7083406  23.5540489  59.3234573
  48.9288560  26.9039989  66.6299676  48.7833141  27.2180292  67.5223957
  48.4513763  27.5224889  66.0770574  50.7884943  23.8942537  66.6780565
  50.7746511  22.9983630  66.3412863  51.5057371  23.9013200  67.3118851
  52.6411073  24.3279877  68.7233693  52.3828851  25.2496948  68.7218023
  52.1096114  23.9310311  69.4134157  57.5857262  37.4330664  61.5023778
  57.7594140  36.8677087  60.7497631  58.0786153  38.2331559  61.3203268
  50.1921839  22.7756917  61.9468135  50.3137750  21.8473563  62.1459023
  49.9023881  22.7895603  61.0346451  53.0613029  20.4611827  65.0834855
  53.0834726  20.5251161  64.1286835  53.4781088  19.6216336  65.2775361
  63.4396653  30.1967087  63.1214078  63.8827799  29.4474412  62.7233201
  62.5623164  30.1877223  62.7387810  58.5732435  36.7497428  58.6020676
  59.2683339  37.3704121  58.8207991  58.9155585  35.8992780  58.8773054
  44.1900244  28.5715229  72.4617494  43.4481980  28.7197865  73.0482124
  43.8692988  28.8323495  71.5984243  60.4723858  34.1997134  60.1308007
  60.9975182  34.5384407  59.4057327  60.3846210  33.2644149  59.9471142
  52.1343906  38.1131208  72.2597884  52.4431033  37.8680354  73.1320583
  52.9319388  38.3177846  71.7716754  52.1564519  40.2669117  64.4903260
  51.7169509  39.7745496  65.1836117  52.9072635  39.7242085  64.2495336
  49.6038391  35.8107126  66.5625562  48.9818400  35.1477831  66.2627790
  50.2743258  35.8368258  65.8799210  42.8365463  34.3766985  65.4516822
  41.9997371  33.9489159  65.2700823  42.8089108  34.5699428  66.3887613
  49.6762918  24.2888914  76.1558068  49.7251074  25.1651037  75.7735838
  50.2185432  23.7466307  75.5829711  60.1617764  34.8330038  75.4359205
  59.3713308  34.8154177  74.8963704  59.9251118  35.3718331  76.1908242
  60.2815639  31.6822504  72.7491934  60.3313644  31.5172511  73.6907456
  60.1729562  30.8149763  72.3589814  49.1651898  34.3611050  60.0384023
  49.3140018  35.0446514  59.3850695  49.9718341  34.3416140  60.5533478
  57.5719401  27.6653432  74.0651240  58.4729264  27.5259897  73.7735238
  57.6467376  27.8307887  75.0049418  51.9062207  25.0420287  72.9104427
  51.0365516  25.3353853  72.6387015  52.1421687  25.6260732  73.6311690
  61.7833836  34.1019446  72.9933955  61.4918644  34.4649426  73.8297416
  61.1705967  33.3886454  72.8147287  62.9829518  31.6672325  65.5136525
  63.8176409  32.1062129  65.6774086  63.1188647  31.1910979  64.6944771
  60.0321024  29.2252060  71.4614013  60.5075146  29.4179706  70.6532865
  59.1086589  29.2811246  71.2157397  46.9204531  30.3876227  61.0445091
  46.6750573  29.4838557  61.2425302  47.0900445  30.3893378  60.1024569
  54.6101240  21.2599904  70.4269847  55.1283184  21.9960931  70.1016336
  54.2556373  21.5663897  71.2616606  46.1900178  26.1204585  58.5431253
  45.4969423  26.1948940  57.8871289  45.9451930  25.3564929  59.0652770
  54.8613835  17.6800186  65.9470744  55.1415588  17.0123375  66.5731170
  55.6464442  17.8729282  65.4345407  58.7322693  26.1017820  69.6942319
  59.6840116  26.2015918  69.7154543  58.5626143  25.3096089  70.2040403
  56.7537072  23.1873403  69.8801720  56.1587005  23.4678416  69.1848208
  56.4686769  23.6767304  70.6518461  55.8844563  37.1396330  58.6404352
  56.8175236  37.0741892  58.8437228  55.7967776  37.9752597  58.1818885
  58.5132580  36.4562201  55.6008300  58.4346211  36.1222064  56.4944058
  59.3342246  36.9483969  55.5999772  61.2110771  29.3223940  68.8084618
  61.1787091  28.3839941  68.9944302  61.8211394  29.4007977  68.0750443
  53.0494102  28.1919993  54.8511822  53.9953206  28.0626201  54.9200240
  52.6708347  27.4534655  55.3281251  61.3605259  26.1134983  68.8542902
  60.8444308  25.3293440  68.6672830  62.2445208  25.7853700  69.0189421
  59.0215986  19.8575999  64.8138714  58.8240807  19.5491087  65.6982046
  59.6315692  20.5837638  64.9436644  67.0287321  30.3839947  67.9490655
  67.7590709  30.1225235  68.5098358  66.4194266  29.6468669  67.9892723
  65.1102618  28.5247809  68.5465106  64.3835781  28.3903774  67.9381598
  64.6949905  28.8324638  69.3521824  52.9332794  32.2437739  76.3112479
  53.8535804  32.4216338  76.5052526  52.8982377  31.2993784  76.1592179
  51.2337019  26.1169969  54.7866708  50.3268474  25.8203082  54.8629421
  51.5113000  25.8199787  53.9200994  42.1514959  27.4376333  65.2365754
  41.8317743  26.5841641  64.9440128  41.6048387  27.6524911  65.9923721
  45.9294867  30.1538774  68.9535261  46.1480876  31.0855882  68.9723294
  46.3420641  29.7946748  69.7390064  52.8499084  20.6606859  60.9410949
  52.0399813  20.3153944  61.3166195  53.5383501  20.3514403  61.5298560
  54.7789633  19.7384906  62.5635246  55.3320671  20.1580359  63.2225269
  55.0159719  18.8120654  62.6058202  50.8022732  25.7271979  78.3438009
  50.7019459  26.6766336  78.2750101  50.5844274  25.3990218  77.4714080
  50.0035803  22.9756905  54.9278687  50.8654967  23.3011803  55.1874504
  50.1886148  22.1888400  54.4151753  42.0203219  31.0579244  67.2058876
  41.3266691  30.6433197  66.6928830  42.7676210  31.0999781  66.6092295
  58.1568440  21.8485431  62.0713910  57.5767109  22.5070235  61.6891962
  57.8904373  21.0262776  61.6601327  56.6072006  21.2490489  64.2735230
  57.1071785  21.3607023  63.4649549  57.2507614  20.9451542  64.9136039
  50.6654002  29.1569118  77.1603071  50.1821084  29.9569478  77.3666960
  50.7514941  29.1677063  76.2070515  43.9339962  30.9897498  65.0824890
  43.9110650  31.0885185  64.1306774  44.2440598  31.8362649  65.4042057
  46.5927340  33.0473653  69.1971505  47.5470593  33.0157595  69.1301436
  46.3939863  32.5864277  70.0121731  47.1826722  31.6174769  71.7642303
  48.0019611  32.1118848  71.7877140  47.4563529  30.7006737  71.7359870
  56.9393318  24.0085521  61.1270258  56.0519173  24.2935172  60.9090453
  57.3547307  23.8479285  60.2797535  60.2907854  24.0332042  64.8424597
  61.0668244  24.5228495  65.1149214  59.5655988  24.4590097  65.2996467
  62.7280413  24.7459662  65.8998538  63.3224903  24.5055398  65.1891846
  62.8006996  24.0266792  66.5272074  56.0836531  33.7730196  55.2218278
  56.7872381  33.9780199  55.8375934  55.3599180  34.3406958  55.4867362
  56.9134342  29.5240057  61.3420548  56.8569543  29.9808609  60.5028181
  57.4662684  28.7630742  61.1643391  60.7239148  25.3129789  62.1670668
  60.4676082  24.9126425  62.9978875  60.0992016  26.0273583  62.0420807
  65.0351485  28.0525862  64.6741959  64.4751043  28.1219052  65.4473521
  64.4294989  27.8766847  63.9541455  57.9923229  34.2112725  57.2716738
  58.8268833  33.7793924  57.0894213  57.8307572  34.0394739  58.1993633
  57.6469121  30.7144839  58.6373077  57.5917925  30.5489110  57.6961522
  57.0215176  31.4220871  58.7935267  42.4361636  25.9512903  72.4634500
  43.0820500  25.4411857  72.9521725  42.2278787  26.6881585  73.0377925
  54.9615028  33.0193750  77.9626640  55.8306188  33.1934403  77.6013275
  54.4821780  33.8388167  77.8402370  50.9565246  20.2152948  58.2158396
  50.9443916  21.1594787  58.3726667  51.8488668  20.0323093  57.9217857
  49.1301208  40.1390851  69.6416074  50.0328455  40.1714462  69.9582569
  48.9038578  39.2091302  69.6562410  50.8854810  38.8921838  66.3026152
  49.9350441  38.8923700  66.1890525  51.1887297  38.1454573  65.7862187
  54.7717366  16.8095724  62.4704333  54.0049762  16.2554211  62.6161015
  55.1828071  16.8817593  63.3318484  46.7759127  23.0980520  76.5609514
  47.6390588  22.7417325  76.7712838  46.2024538  22.7594415  77.2484918
  66.6207504  44.7282376  67.3671915  67.2585914  44.6089124  66.6635255
  66.5028347  45.6763220  67.4259867  63.4297210  44.6809804  67.3033440
  63.0915722  44.5650869  66.4153974  64.2986978  44.2800970  67.2834446
  59.2884026  46.5345281  63.2930331  58.7248891  46.4435218  62.5246618
  59.1736421  45.7145185  63.7732823  63.9116993  45.8344656  73.2619645
  63.9005634  45.4397454  72.3900149  64.0737633  45.1010729  73.8553417
  56.8348458  48.0296472  66.1314551  57.6269750  47.6887297  65.7160850
  57.0745108  48.1391448  67.0516704  60.6324254  48.6181768  72.2098829
  60.3414120  49.5227399  72.0945495  61.2681239  48.6598296  72.9242899
  61.5580461  45.9958617  68.8000189  62.1544033  45.7714639  68.0857152
  61.6155433  45.2543362  69.4025637  61.1305490  43.4498052  56.6350380
  61.3831010  42.9279573  55.8733843  60.1930049  43.2864197  56.7377063
  66.1748772  42.4533830  64.4425123  66.9611862  42.0353253  64.0915540
  66.4387477  43.3579922  64.6106771  66.3458850  47.8906681  59.1413780
  65.7104683  47.9641307  59.8534684  66.0156256  48.4800279  58.4632859
  71.5757199  42.3909063  65.3458101  72.3082371  41.8208280  65.5795931
  70.8196555  42.0030664  65.7864607  60.8501778  45.3526158  58.8374755
  60.7338036  44.6771061  59.5055839  60.9604038  44.8658532  58.0206908
  63.1933319  44.8136305  62.5421444  62.8291526  44.2866926  63.2534365
  64.0500435  44.4234774  62.3687929  69.0982620  36.1030638  69.8052710
  68.7665945  36.9726048  69.5813925  68.5028233  35.7866922  70.4846740
  62.8338806  39.8426205  57.5382792  63.0013209  40.7106441  57.9053263
  62.6435975  40.0053486  56.6144082  65.5914139  48.3043184  69.2048623
  65.2914862  49.2068222  69.0964430  65.2465199  48.0375367  70.0569776
  59.0426621  44.7556980  65.2385327  58.1177117  44.6233194  65.4463019
  59.2911034  45.5351200  65.7355270  68.9911283  40.8225724  66.8846060
  68.0828160  40.7541132  66.5904821  68.9398879  41.2997669  67.7127886
  62.8128027  42.2983862  58.5229459  62.6927652  42.7440913  59.3614940
  62.1180615  42.6469180  57.9642997  56.4035432  44.3990254  66.0729116
  56.5327813  44.6524733  66.9868528  55.7232883  44.9917962  65.7533771
  60.5734919  55.0687504  62.1719590  60.4958949  56.0195329  62.2508071
  59.9696563  54.7233376  62.8294517  63.0652149  42.2415369  74.8280957
  62.2885483  42.8009289  74.8183822  63.7042712  42.7272152  75.3495827
  70.8572930  39.0242162  68.6623934  70.2147310  39.3174695  68.0163729
  70.3527858  38.9095082  69.4677131  68.5113093  42.7705335  59.3509793
  69.4230949  43.0032722  59.1757491  68.0022740  43.3542379  58.7884872
  61.3198521  45.0500823  74.3898924  62.0613206  45.5885867  74.1133748
  60.6135507  45.6767111  74.5470476  66.7953861  47.1929963  72.9871086
  67.2037217  46.7512374  72.2425718  66.0731122  46.6182591  73.2405279
  63.1484931  42.1302570  70.3604643  63.9946126  42.5541983  70.5039292
  63.0883569  41.4736194  71.0543206  67.1182676  47.7531154  66.7423375
  66.4891538  47.9176868  66.0399443  66.7308338  48.1672763  67.5134339
  70.9971907  48.6885592  64.0967738  70.3122946  49.0684493  63.5464772
  71.0815757  49.2980918  64.8299686  66.2984376  39.7906938  72.0185816
  66.0545308  40.5448999  71.4820092  66.5744307  40.1692286  72.8533063
  68.2522839  46.3345551  70.6963082  68.4639734  46.9777310  70.0197463
  68.2052587  45.5007867  70.2285012  65.8549068  38.9463371  67.5999654
  64.9933547  39.2444625  67.8916392  65.8811503  39.1633770  66.6680687
  62.6710637  47.4905562  64.0073460  63.1348983  47.7693265  63.2178082
  62.4067435  46.5889006  63.8246551  59.5634718  47.0377043  66.9453223
  60.1336076  47.4664312  66.3070708  60.1542830  46.7559628  67.6437409
  61.6079523  43.6128714  60.8163025  62.3103567  44.0649758  61.2836951
  61.2760152  42.9712533  61.4442918  60.0559885  42.2040471  75.1914234
  59.4258546  42.8856752  75.4249631  59.9495973  42.0923552  74.2467373
  55.3504857  41.8712267  66.1180159  54.5603911  42.1269795  65.6420269
  55.8416105  42.6860605  66.2232199  69.3668667  49.2117506  68.8685439
  70.1886111  48.8097693  68.5868121  69.3631070  49.1085740  69.8201555
  57.3019603  42.2356846  63.0763635  56.5050766  42.3475540  63.5947131
  57.0745195  42.5743498  62.2104526  63.1325270  48.7601549  71.0246150
  63.1969703  49.2221957  71.8604322  62.4236194  48.1298914  71.1528460
  53.6342560  42.1242757  68.5495149  53.8850599  43.0089767  68.8152725
  54.1702109  41.9447359  67.7770241  77.4574660  45.5556254  65.2170411
  76.7038368  44.9863653  65.0614415  77.5922201  45.5218919  66.1641046
  62.8473288  50.4269657  60.8925130  62.7118963  51.2721193  61.3209978
  63.3883101  50.6288934  60.1291064  59.3340628  36.5061237  77.5539485
  58.9407573  35.9527435  78.2287130  60.1506768  36.8171815  77.9446003
  58.1097570  51.0610851  63.5475808  58.2864198  51.9828816  63.3596792
  58.9054404  50.7469270  63.9770188  62.2508589  37.9219116  75.1459742
  62.9918302  38.5226269  75.0664204  62.4826512  37.1796754  74.5877785
  57.3949927  43.1075483  73.4237972  57.2803442  42.2060740  73.7245071
  56.5394444  43.3539180  73.0722788  64.4741764  51.0493223  75.0225472
  64.0305619  50.2629602  74.7046377  65.1358978  51.2372374  74.3569363
  59.2328886  52.5789025  69.5486151  59.7836311  52.4506088  68.7763145
  58.3940362  52.8783914  69.1981044  66.5723002  51.3296023  73.0506874
  66.5541478  52.1504904  72.5587143  67.4942923  51.2050098  73.2757015
  63.0296057  48.8440153  73.8930382  63.5624393  48.0828441  73.6629690
  62.5010138  48.5513805  74.6354536  66.1965752  33.9500219  69.4224024
  65.8530021  34.8401860  69.3463134  66.5644714  33.7601876  68.5593609
  66.1616034  43.9408830  57.9296459  65.6462658  44.7113434  58.1684846
  65.8893343  43.2673966  58.5529520  63.7463145  38.7858531  62.9881697
  62.8904742  38.3965381  62.8087336  64.1590097  38.8650491  62.1281483
  65.2762292  36.3204874  67.3873257  64.7727088  36.2835009  66.5741062
  65.5692899  37.2297617  67.4469914  61.5205178  36.4043604  66.3939439
  62.3858175  36.2086412  66.0345328  61.5882687  36.1753955  67.3208795
  71.1350308  46.6941184  59.8649632  70.3579751  46.3552344  59.4204794
  71.8141789  46.6993808  59.1904597  65.9502338  41.8135922  59.7556240
  65.6452473  42.1282071  60.6066383  66.9032780  41.8917342  59.7983573
  64.3948769  47.9726145  61.4049194  63.8670131  47.2378905  61.0922431
  63.8936272  48.7500822  61.1589162  69.3741615  46.1675166  66.5216240
  68.7165290  46.8574427  66.6096369  70.1782015  46.5571598  66.8650227
  59.1267497  38.6345811  63.7655805  59.7011249  38.4120993  63.0328998
  59.7138479  38.7034506  64.5184407  68.1847074  44.5219538  64.5720182
  68.6978956  45.1549530  65.0741892  68.8348298  43.9220734  64.2063542
  59.4537084  40.6650273  57.7851691  58.6174396  41.0024959  58.1060965
  59.3141854  40.5299252  56.8478828  61.4290165  35.5087060  62.4930875
  60.7754577  35.1936078  61.8687490  61.3870639  34.8862801  63.2190698
  62.5401370  45.7906355  54.4084167  61.6328431  45.5595609  54.6075316
  63.0372402  44.9943975  54.5958149  65.4469448  54.5003863  57.3280853
  64.7731147  54.8035559  57.9365811  65.8335270  55.3032943  56.9786310
  64.6627905  41.9968994  66.8178522  63.7450466  42.2183941  66.6600211
  65.0788049  42.0715304  65.9590230  65.4462953  43.3960410  61.9481203
  66.1934772  43.9081807  61.6388325  65.7154542  43.0744462  62.8085596
  63.7189603  45.8918950  58.9308157  62.8100822  45.6077983  59.0280627
  63.7484687  46.3118029  58.0711464  68.9508870  49.5025540  62.6999325
  68.4971197  48.6616450  62.7564515  68.3202837  50.1386938  63.0374105
  67.8941790  40.4317526  63.9299992  67.1564547  39.9194912  64.2610235
  68.1468563  39.9917907  63.1183269  67.3941810  51.3402037  63.6349143
  67.6864784  51.9007094  62.9161508  67.9040430  51.6330598  64.3902302
  67.9953417  33.2093778  64.5241761  68.3012294  32.3491141  64.2367676
  68.7206022  33.8011398  64.3240755  54.2877773  43.6124464  62.9123359
  54.0902173  43.0193825  62.1874426  53.7324437  43.3076675  63.6299298
  62.2674497  43.5047571  65.0317952  62.3223107  42.5521407  64.9560429
  61.4565699  43.6607010  65.5159251  63.4165691  47.4327694  56.2696236
  62.9785121  46.7163553  55.8101873  64.1576132  47.6603809  55.7081327
  60.2066857  42.1224631  62.7908331  59.3934722  42.4218801  63.1973523
  60.7025851  41.7280319  63.5082814  62.3575435  52.1182388  64.7242596
  62.3151614  52.3443234  63.7951128  63.2738134  51.8845762  64.8728397
  65.8041069  42.5866455  71.6223225  66.1590456  42.8137928  72.4817691
  66.4513200  42.9184832  71.0000480  71.5338806  45.7084891  62.3272554
  71.3956704  45.8986487  61.3993743  71.1775024  46.4704274  62.7840605
  59.6980932  39.6942986  68.4069566  60.3380311  39.5531745  67.7092530
  58.8658462  39.4077500  68.0308168  71.5608185  47.7761418  67.3383826
  71.9944692  47.6836707  68.1866880  72.2739766  47.7518919  66.7003842
  60.4741236  48.9945417  64.5204559  61.2681834  48.4995737  64.3187134
  59.7632928  48.4663280  64.1572264  65.2936080  51.3763512  68.8716926
  65.3473102  51.9454448  69.6394642  64.4250861  51.5465397  68.5070963
  56.7823999  43.1388498  60.5964311  55.8521587  43.0772954  60.8134273
  56.8781471  42.6164451  59.8000953  56.7009548  39.6643311  63.1842553
  56.9616365  40.5788644  63.0751713  57.5226720  39.1967754  63.3339166
  58.1734473  41.0781068  70.3541378  58.8457527  40.8698430  69.7054026
  57.3464260  40.8803154  69.9146610  72.4223735  47.8185119  69.8716711
  72.6159625  48.7230929  70.1175986  72.3224353  47.3592538  70.7055296
  64.0760045  37.7043009  72.3707038  63.4287961  38.4032959  72.2771515
  64.8461061  38.1379153  72.7383287  67.4838843  47.9691861  75.4457592
  67.3324350  47.7402413  74.5287675  67.4743523  48.9262463  75.4588937
  64.2524180  45.5423774  70.4303858  65.1816240  45.6934934  70.2572825
  63.8315210  45.6307795  69.5752505  63.0512512  49.5674439  68.2002396
  62.9123597  49.1993223  69.0728334  62.2627108  50.0822078  68.0286354
  63.6460664  54.6683535  59.5427932  63.8212419  54.1971578  60.3573555
  62.9593452  55.2949301  59.7709193  64.6017727  48.9456041  65.5891234
  64.2667559  48.9056811  66.4848883  64.1021672  48.2800757  65.1161644
  58.5761971  44.3523671  71.1143815  58.4381769  43.6203910  71.7155354
  59.4866894  44.2632571  70.8328002  67.5376918  46.2912076  55.8628293
  66.9206089  45.5658904  55.7661346  67.0693407  47.0521436  55.5195367
  61.2044271  44.0643631  70.6027494  61.9143890  43.4236823  70.5614113
  61.1613580  44.3156526  71.5253675  69.1931050  51.0010984  73.5234074
  69.1343596  50.3170204  72.8564657  69.5950568  51.7429974  73.0714700
  59.9173205  41.0508849  72.4223134  59.3810562  40.5999587  73.0744730
  59.3289914  41.1854757  71.6793598  58.2121749  57.8172898  66.3167792
  58.4518347  58.4491422  66.9946811  57.3690945  57.4660938  66.6033152
  59.3275464  40.5097500  54.9849597  58.4504931  40.3886301  54.6211844
  59.8033217  39.7183578  54.7328486  69.1948457  48.9650568  71.7548053
  68.3075236  48.6276490  71.8774452  69.7647008  48.2333599  71.9916819
  50.8477604  45.2974660  65.0791105  51.5348644  44.9836390  64.4912120
  50.6925733  46.2016024  64.8058356  55.6512327  40.1864856  69.5076128
  55.5670515  39.5790526  68.7726538  54.8295033  40.6773875  69.5085625
  62.7249611  53.6252020  68.7209296  62.6519782  54.4306992  69.2328601
  62.2827004  53.8243986  67.8957318  62.5139390  52.8623790  62.2312118
  61.7306912  53.4045471  62.3250343  63.2132136  53.3797770  62.6306359
  65.8236040  38.6718420  64.8746323  66.3204740  37.9188382  64.5547394
  65.0523022  38.7082736  64.3089533  73.6765798  44.3758785  66.5164615
  73.6655674  45.2583501  66.1458548  72.8083177  44.0230336  66.3219152
  65.1848294  53.5238854  70.8767455  65.8976266  54.1586319  70.8043357
  64.6938323  53.6202720  70.0607457  66.9065821  47.4290107  62.4484747
  65.9722100  47.5491569  62.2789451  67.0842490  46.5262574  62.1844757
  62.4071009  40.8135803  64.6018008  62.0368797  40.2606843  65.2898914
  62.9030102  40.2093936  64.0493008  70.2938372  43.2707426  62.9834781
  70.7598825  44.1035418  62.9095084  70.7445873  42.8052408  63.6880039
  60.2360208  51.2733298  71.6973026  60.9369667  51.9069781  71.8502420
  59.7655323  51.6148029  70.9368665  68.3614604  49.6151248  59.9820933
  68.6374448  49.5007842  60.8914807  67.4919102  49.2168732  59.9433106
  68.2655035  35.6388013  67.0225682  67.3518115  35.8692240  67.1907889
  68.6948137  35.7226457  67.8739715  68.0361494  43.8277905  69.5225576
  67.3832944  44.0753813  68.8678029  68.4141874  43.0142043  69.1888054
  64.9968668  53.8637598  63.6253747  65.1791062  53.0459254  64.0881499
  65.8201654  54.0805291  63.1878637  65.3310833  52.7905784  60.8868795
  65.8598600  52.2798238  60.2738957  65.5939053  52.4748314  61.7514328
  64.0849067  44.5697716  76.0091613  63.4089704  44.4691846  76.6793989
  64.9076701  44.4136930  76.4727611  55.8327926  50.8069653  68.6304129
  56.4181363  50.0613341  68.7632033  55.6352764  51.1173610  69.5140793
  58.6866581  53.8420900  63.6466571  58.0176956  54.3267028  63.1630611
  58.5479451  54.0890121  64.5609950  50.4245581  43.3775253  67.3508572
  50.4629680  42.8438844  68.1445690  49.9185873  42.8510459  66.7319549
  62.8271850  55.8764644  70.2449229  63.3790158  56.0396265  71.0098315
  63.1678043  56.4669082  69.5729254  57.8036343  38.2239794  70.8471114
  57.8677669  39.0854624  70.4348512  57.7403463  37.6113795  70.1143473
  57.2788615  40.2962926  74.4944148  57.9060654  39.9140003  75.1081673
  56.4216534  40.0777128  74.8599841  67.6782724  50.7025901  76.0997884
  68.2222628  51.3155860  75.6052839  67.0969569  51.2605480  76.6164897
  65.9640237  53.8246619  67.2312912  65.8391376  53.0236359  66.7223857
  66.6219328  54.3192813  66.7426881  57.5848405  40.1795352  66.4090052
  56.8634991  40.7931319  66.2697525  58.3741661  40.7153117  66.3306698
  68.0275145  51.6255639  68.8592462  67.0805481  51.5060991  68.7870788
  68.3757918  50.7378137  68.9418723  60.3874719  37.5149778  72.6830704
  60.9109120  37.7612075  73.4457013  60.1687052  38.3469813  72.2633841
  55.7842000  39.7853453  60.5501828  55.4554706  38.9050832  60.3676934
  56.1381370  39.7301122  61.4378218  65.0321579  51.4208356  65.0596814
  64.8846541  50.4925063  65.2404384  65.8575072  51.4428446  64.5753889
  58.8983823  40.0726423  60.9177306  59.2379895  40.6012344  60.1955914
  59.3455943  40.4106829  61.6935873  68.6355700  52.2436914  66.1461687
  69.5602248  52.0379776  66.0086138  68.4671004  51.9953315  67.0551028
  61.5927264  38.4563473  70.3680374  61.2524084  37.6571286  70.7701054
  60.8866270  38.7565184  69.7957207  62.2443736  35.5412786  68.8207697
  63.0669805  35.0673264  68.6986587  62.4881799  36.3203270  69.3206383
  60.8851970  38.5701044  59.1170599  61.6060333  38.9482297  58.6134316
  60.2617274  39.2889921  59.2205577  65.0283093  39.2746193  60.0528931
  65.2446707  40.1570831  59.7517759  64.5477160  38.8832407  59.3234573
  59.7682314  42.2331906  66.6299676  59.6226895  42.5472210  67.5223957
  59.2907518  42.8516807  66.0770574  61.6278697  39.2234454  66.6780565
  61.6140266  38.3275548  66.3412863  62.3451125  39.2305118  67.3118851
  63.4804828  39.6571795  68.7233693  63.2222606  40.5788865  68.7218023
  62.9489868  39.2602229  69.4134157  68.4251017  52.7622582  61.5023778
  68.5987894  52.1969004  60.7497631  68.9179908  53.5623477  61.3203268
  54.2427976  44.7737251  69.5687337  53.6981445  45.5497059  69.7007611
  55.1207326  45.1208055  69.4106458  61.0315593  38.1048835  61.9468135
  61.1531504  37.1765481  62.1459023  60.7417635  38.1187521  61.0346451
  63.9006783  35.7903745  65.0834855  63.9228480  35.8543078  64.1286835
  64.3174843  34.9508254  65.2775361  74.2790408  45.5259005  63.1214078
  74.7221554  44.7766330  62.7233201  73.4016918  45.5169141  62.7387810
  69.4126189  52.0789346  58.6020676  70.1077094  52.6996039  58.8207991
  69.7549339  51.2284697  58.8773054  55.0293998  43.9007147  72.4617494
  54.2875734  44.0489782  73.0482124  54.7086743  44.1615413  71.5984243
  71.3117612  49.5289052  60.1308007  71.8368936  49.8676324  59.4057327
  71.2239965  48.5936067  59.9471142  62.9737661  53.4423125  72.2597884
  63.2824787  53.1972272  73.1320583  63.7713143  53.6469764  71.7716754
  62.9958273  55.5961035  64.4903260  62.5563263  55.1037414  65.1836117
  63.7466390  55.0534003  64.2495336  60.4432145  51.1399044  66.5625562
  59.8212154  50.4769749  66.2627790  61.1137012  51.1660176  65.8799210
  60.5156673  39.6180832  76.1558068  60.5644828  40.4942955  75.7735838
  61.0579187  39.0758225  75.5829711  71.0011518  50.1621955  75.4359205
  70.2107062  50.1446094  74.8963704  70.7644873  50.7010249  76.1908242
  71.1209393  47.0114422  72.7491934  71.1707398  46.8464429  73.6907456
  71.0123317  46.1441681  72.3589814  68.4113156  42.9945350  74.0651240
  69.3123019  42.8551815  73.7735238  68.4861130  43.1599805  75.0049418
  62.7455961  40.3712204  72.9104427  61.8759271  40.6645771  72.6387015
  62.9815441  40.9552649  73.6311690  72.6227590  49.4311363  72.9933955
  72.3312399  49.7941344  73.8297416  72.0099721  48.7178372  72.8147287
  73.8223273  46.9964243  65.5136525  74.6570164  47.4354047  65.6774086
  73.9582401  46.5202896  64.6944771  70.8714778  44.5543978  71.4614013
  71.3468900  44.7471624  70.6532865  69.9480344  44.6103164  71.2157397
  57.7598285  45.7168145  61.0445091  57.5144327  44.8130475  61.2425302
  57.9294200  45.7185295  60.1024569  65.4494995  36.5891821  70.4269847
  65.9676939  37.3252848  70.1016336  65.0950128  36.8955815  71.2616606
  57.0293933  41.4496503  58.5431253  56.3363178  41.5240858  57.8871289
  56.7845684  40.6856846  59.0652770  65.7007589  33.0092104  65.9470744
  65.9809343  32.3415293  66.5731170  66.4858196  33.2021200  65.4345407
  63.5041058  52.1851098  57.5095770  62.9315025  52.8041285  57.0566242
  64.0773851  52.7350460  58.0435692  69.5716447  41.4309738  69.6942319
  70.5233870  41.5307836  69.7154543  69.4019898  40.6388006  70.2040403
  67.5930827  38.5165321  69.8801720  66.9980759  38.7970334  69.1848208
  67.3080524  39.0059222  70.6518461  66.7238317  52.4688248  58.6404352
  67.6568991  52.4033810  58.8437228  66.6361530  53.3044515  58.1818885
  69.3526334  51.7854118  55.6008300  69.2739966  51.4513982  56.4944058
  70.1736001  52.2775886  55.5999772  72.0504525  44.6515858  68.8084618
  72.0180845  43.7131858  68.9944302  72.6605149  44.7299894  68.0750443
  63.8887856  43.5211911  54.8511822  64.8346961  43.3918119  54.9200240
  63.5102101  42.7826573  55.3281251  72.1999014  41.4426901  68.8542902
  71.6838062  40.6585358  68.6672830  73.0838962  41.1145618  69.0189421
  69.8609741  35.1867917  64.8138714  69.6634562  34.8783005  65.6982046
  70.4709446  35.9129556  64.9436644  77.8681075  45.7131864  67.9490655
  78.5984464  45.4517153  68.5098358  77.2588021  44.9760586  67.9892723
  75.9496372  43.8539727  68.5465106  75.2229536  43.7195692  67.9381598
  75.5343659  44.1616556  69.3521824  63.7726549  47.5729657  76.3112479
  64.6929558  47.7508256  76.5052526  63.7376132  46.6285702  76.1592179
  62.0730773  41.4461887  54.7866708  61.1662229  41.1495000  54.8629421
  62.3506754  41.1491705  53.9200994  52.9908714  42.7668250  65.2365754
  52.6711498  41.9133559  64.9440128  52.4442142  42.9816829  65.9923721
  56.7688621  45.4830691  68.9535261  56.9874631  46.4147799  68.9723294
  57.1814395  45.1238666  69.7390064  63.6892839  35.9898777  60.9410949
  62.8793567  35.6445862  61.3166195  64.3777256  35.6806320  61.5298560
  65.6183387  35.0676824  62.5635246  66.1714426  35.4872277  63.2225269
  65.8553474  34.1412572  62.6058202  61.6416486  41.0563897  78.3438009
  61.5413213  42.0058254  78.2750101  61.4238029  40.7282136  77.4714080
  60.8429558  38.3048822  54.9278687  61.7048722  38.6303721  55.1874504
  61.0279902  37.5180318  54.4151753  52.8596974  46.3871162  67.2058876
  52.1660445  45.9725115  66.6928830  53.6069965  46.4291698  66.6092295
  68.9962194  37.1777349  62.0713910  68.4160863  37.8362153  61.6891962
  68.7298127  36.3554693  61.6601327  67.4465761  36.5782406  64.2735230
  67.9465539  36.6898941  63.4649549  68.0901369  36.2743459  64.9136039
  61.5047757  44.4861036  77.1603071  61.0214838  45.2861396  77.3666960
  61.5908696  44.4968981  76.2070515  54.7733716  46.3189416  65.0824890
  54.7504404  46.4177103  64.1306774  55.0834353  47.1654566  65.4042057
  57.4321094  48.3765571  69.1971505  58.3864348  48.3449513  69.1301436
  57.2333618  47.9156194  70.0121731  58.0220476  46.9466687  71.7642303
  58.8413365  47.4410765  71.7877140  58.2957284  46.0298655  71.7359870
  67.7787072  39.3377439  61.1270258  66.8912927  39.6227090  60.9090453
  68.1941061  39.1771202  60.2797535  71.1301609  39.3623960  64.8424597
  71.9061999  39.8520412  65.1149214  70.4049743  39.7882014  65.2996467
  73.5674167  40.0751579  65.8998538  74.1618658  39.8347315  65.1891846
  73.6400751  39.3558710  66.5272074  55.7871323  53.9185190  66.2141703
  55.6525791  53.1585591  65.6479701  55.3703385  54.6426090  65.7470492
  66.9230286  49.1022114  55.2218278  67.6266136  49.3072116  55.8375934
  66.1992935  49.6698876  55.4867362  67.7528096  44.8531975  61.3420548
  67.6963298  45.3100526  60.5028181  68.3056439  44.0922660  61.1643391
  71.5632902  40.6421707  62.1670668  71.3069836  40.2418343  62.9978875
  70.9385770  41.3565501  62.0420807  75.8745240  43.3817780  64.6741959
  75.3144798  43.4510969  65.4473521  75.2688743  43.2058765  63.9541455
  58.9440449  54.8154507  66.4260145  58.8272833  55.7599940  66.3238836
  58.1232895  54.5128069  66.8145945  68.8316983  49.5404643  57.2716738
  69.6662587  49.1085841  57.0894213  68.6701326  49.3686657  58.1993633
  68.4862875  46.0436756  58.6373077  68.4311679  45.8781028  57.6961522
  67.8608931  46.7512789  58.7935267  53.2755390  41.2804821  72.4634500
  53.9214254  40.7703775  72.9521725  53.0672542  42.0173502  73.0377925
  65.8008783  48.3485668  77.9626640  66.6699942  48.5226320  77.6013275
  65.3215534  49.1680085  77.8402370  61.7959001  35.5444865  58.2158396
  61.7837671  36.4886705  58.3726667  62.6882423  35.3615011  57.9217857
  59.9694963  55.4682769  69.6416074  60.8722210  55.5006379  69.9582569
  59.7432333  54.5383220  69.6562410  61.7248565  54.2213756  66.3026152
  60.7744196  54.2215617  66.1890525  62.0281051  53.4746490  65.7862187
  65.6111120  32.1387642  62.4704333  64.8443516  31.5846129  62.6161015
  66.0221825  32.2109511  63.3318484  57.6152881  38.4272438  76.5609514
  58.4784343  38.0709243  76.7712838  57.0418292  38.0886333  77.2484918
  77.4601258  60.0574294  67.3671915  78.0979668  59.9381041  66.6635255
  77.3422101  61.0055138  67.4259867  74.2690965  60.0101722  67.3033440
  73.9309476  59.8942787  66.4153974  75.1380733  59.6092887  67.2834446
  74.7510748  61.1636574  73.2619645  74.7399388  60.7689372  72.3900149
  74.9131387  60.4302646  73.8553417  71.4718009  63.9473686  72.2098829
  71.1807875  64.8519317  72.0945495  72.1074993  63.9890213  72.9242899
  72.3974216  61.3250534  68.8000189  72.9937788  61.1006557  68.0857152
  72.4549187  60.5835280  69.4025637  77.0142527  57.7825748  64.4425123
  77.8005616  57.3645171  64.0915540  77.2781231  58.6871840  64.6106771
  77.1852604  63.2198598  59.1413780  76.5498437  63.2933225  59.8534684
  76.8550011  63.8092197  58.4632859  82.4150954  57.7200981  65.3458101
  83.1476126  57.1500198  65.5795931  81.6590310  57.3322582  65.7864607
  74.0327074  60.1428223  62.5421444  73.6685281  59.6158844  63.2534365
  74.8894190  59.7526692  62.3687929  79.9376374  51.4322555  69.8052710
  79.6059699  52.3017966  69.5813925  79.3421988  51.1158839  70.4846740
  73.6732561  55.1718122  57.5382792  73.8406963  56.0398359  57.9053263
  73.4829730  55.3345404  56.6144082  76.4307894  63.6335101  69.2048623
  76.1308617  64.5360140  69.0964430  76.0858953  63.3667284  70.0569776
  69.8820375  60.0848898  65.2385327  68.9570872  59.9525112  65.4463019
  70.1304789  60.8643117  65.7355270  79.8305038  56.1517641  66.8846060
  78.9221915  56.0833050  66.5904821  79.7792633  56.6289586  67.7127886
  73.6521782  57.6275780  58.5229459  73.5321407  58.0732831  59.3614940
  72.9574370  57.9761097  57.9642997  73.9045903  57.5707287  74.8280957
  73.1279237  58.1301207  74.8183822  74.5436466  58.0564070  75.3495827
  81.6966684  54.3534080  68.6623934  81.0541064  54.6466613  68.0163729
  81.1921613  54.2387000  69.4677131  79.3506848  58.0997253  59.3509793
  80.2624704  58.3324640  59.1757491  78.8416495  58.6834297  58.7884872
  72.1592276  60.3792740  74.3898924  72.9006960  60.9177784  74.1133748
  71.4529261  61.0059029  74.5470476  77.6347615  62.5221881  72.9871086
  78.0430971  62.0804291  72.2425718  76.9124877  61.9474508  73.2405279
  73.9878685  57.4594488  70.3604643  74.8339881  57.8833901  70.5039292
  73.9277323  56.8028112  71.0543206  77.9576430  63.0823071  66.7423375
  77.3285292  63.2468786  66.0399443  77.5702092  63.4964681  67.5134339
  81.8365662  64.0177509  64.0967738  81.1516700  64.3976411  63.5464772
  81.9209511  64.6272836  64.8299686  77.1378131  55.1198856  72.0185816
  76.8939063  55.8740916  71.4820092  77.4138061  55.4984204  72.8533063
  79.0916593  61.6637468  70.6963082  79.3033489  62.3069228  70.0197463
  79.0446342  60.8299785  70.2285012  76.6942822  54.2755289  67.5999654
  75.8327301  54.5736542  67.8916392  76.7205257  54.4925688  66.6680687
  73.5104392  62.8197479  64.0073460  73.9742737  63.0985182  63.2178082
  73.2461190  61.9180924  63.8246551  70.4028473  62.3668961  66.9453223
  70.9729830  62.7956229  66.3070708  70.9936585  62.0851546  67.6437409
  70.8953639  57.5332388  75.1914234  70.2652300  58.2148669  75.4249631
  70.7889727  57.4215470  74.2467373  66.1898612  57.2004185  66.1180159
  65.3997666  57.4561713  65.6420269  66.6809859  58.0152522  66.2232199
  80.2062421  64.5409424  68.8685439  81.0279865  64.1389611  68.5868121
  80.2024824  64.4377658  69.8201555  68.1413357  57.5648764  63.0763635
  67.3444521  57.6767458  63.5947131  67.9138949  57.9035416  62.2104526
  73.9719025  64.0893467  71.0246150  74.0363457  64.5513874  71.8604322
  73.2629949  63.4590832  71.1528460  64.4736315  57.4534675  68.5495149
  64.7244353  58.3381685  68.8152725  65.0095863  57.2739277  67.7770241
  88.2968414  60.8848172  65.2170411  87.5432123  60.3155570  65.0614415
  88.4315956  60.8510837  66.1641046  70.1734382  51.8353154  77.5539485
  69.7801328  51.2819353  78.2287130  70.9900523  52.1463733  77.9446003
  73.0902343  53.2511033  75.1459742  73.8312057  53.8518187  75.0664204
  73.3220266  52.5088671  74.5877785  68.2343681  58.4367401  73.4237972
  68.1197196  57.5352658  73.7245071  67.3788199  58.6831097  73.0722788
  75.3135519  66.3785141  75.0225472  74.8699373  65.5921520  74.7046377
  75.9752733  66.5664291  74.3569363  70.0722640  67.9080943  69.5486151
  70.6230065  67.7798006  68.7763145  69.2334116  68.2075832  69.1981044
  77.4116757  66.6587941  73.0506874  77.3935232  67.4796822  72.5587143
  78.3336677  66.5342016  73.2757015  73.8689811  64.1732070  73.8930382
  74.4018148  63.4120359  73.6629690  73.3403892  63.8805722  74.6354536
  77.0359506  49.2792136  69.4224024  76.6923776  50.1693778  69.3463134
  77.4038469  49.0893794  68.5593609  74.5856900  54.1150448  62.9881697
  73.7298496  53.7257299  62.8087336  74.9983852  54.1942409  62.1281483
  76.1156046  51.6496792  67.3873257  75.6120842  51.6126927  66.5741062
  76.4086653  52.5589534  67.4469914  72.3598932  51.7335521  66.3939439
  73.2251929  51.5378330  66.0345328  72.4276441  51.5045873  67.3208795
  81.9744063  62.0233102  59.8649632  81.1973506  61.6844262  59.4204794
  82.6535544  62.0285725  59.1904597  76.7896092  57.1427840  59.7556240
  76.4846228  57.4573989  60.6066383  77.7426534  57.2209259  59.7983573
  80.2135370  61.4967083  66.5216240  79.5559044  62.1866345  66.6096369
  81.0175769  61.8863515  66.8650227  69.9661251  53.9637729  63.7655805
  70.5405003  53.7412911  63.0328998  70.5532234  54.0326424  64.5184407
  79.0240829  59.8511456  64.5720182  79.5372710  60.4841448  65.0741892
  79.6742053  59.2512652  64.2063542  72.2683919  50.8378978  62.4930875
  71.6148332  50.5227995  61.8687490  72.2264393  50.2154719  63.2190698
  76.2863203  69.8295780  57.3280853  75.6124902  70.1327477  57.9365811
  76.6729025  70.6324861  56.9786310  75.5021660  57.3260912  66.8178522
  74.5844221  57.5475859  66.6600211  75.9181803  57.4007222  65.9590230
  76.2856707  58.7252327  61.9481203  77.0328526  59.2373725  61.6388325
  76.5548297  58.4036380  62.8085596  79.7902625  64.8317458  62.6999325
  79.3364952  63.9908367  62.7564515  79.1596592  65.4678856  63.0374105
  78.7335544  55.7609444  63.9299992  77.9958301  55.2486830  64.2610235
  78.9862318  55.3209825  63.1183269  78.2335564  66.6693954  63.6349143
  78.5258538  67.2299011  62.9161508  78.7434185  66.9622515  64.3902302
  78.8347172  48.5385696  64.5241761  79.1406049  47.6783059  64.2367676
  79.5599777  49.1303316  64.3240755  73.1068252  58.8339489  65.0317952
  73.1616861  57.8813325  64.9560429  72.2959454  58.9898928  65.5159251
  71.0460611  57.4516548  62.7908331  70.2328477  57.7510719  63.1973523
  71.5419606  57.0572237  63.5082814  76.6434823  57.9158373  71.6223225
  76.9984211  58.1429846  72.4817691  77.2906954  58.2476750  71.0000480
  82.3732560  61.0376809  62.3272554  82.2350459  61.2278405  61.3993743
  82.0168779  61.7996192  62.7840605  70.5374686  55.0234904  68.4069566
  71.1774066  54.8823663  67.7092530  69.7052217  54.7369417  68.0308168
  82.4001940  63.1053336  67.3383826  82.8338446  63.0128625  68.1866880
  83.1133520  63.0810836  66.7003842  76.1329835  66.7055430  68.8716926
  76.1866857  67.2746366  69.6394642  75.2644616  66.8757315  68.5070963
  67.5403303  54.9935229  63.1842553  67.8010120  55.9080562  63.0751713
  68.3620475  54.5259671  63.3339166  69.0128228  56.4072986  70.3541378
  69.6851281  56.1990348  69.7054026  68.1858014  56.2095072  69.9146610
  83.2617489  63.1477036  69.8716711  83.4553379  64.0522847  70.1175986
  83.1618107  62.6884455  70.7055296  74.9153800  53.0334927  72.3707038
  74.2681715  53.7324877  72.2771515  75.6854815  53.4671071  72.7383287
  78.3232598  63.2983779  75.4457592  78.1718104  63.0694331  74.5287675
  78.3137277  64.2554381  75.4588937  75.0917934  60.8715692  70.4303858
  76.0209994  61.0226851  70.2572825  74.6708964  60.9599713  69.5752505
  73.8906266  64.8966356  68.2002396  73.7517352  64.5285141  69.0728334
  73.1020862  65.4113996  68.0286354  75.4411481  64.2747959  65.5891234
  75.1061314  64.2348729  66.4848883  74.9415427  63.6092675  65.1161644
  69.4155725  59.6815589  71.1143815  69.2775523  58.9495828  71.7155354
  70.3260649  59.5924489  70.8328002  72.0438026  59.3935548  70.6027494
  72.7537644  58.7528741  70.5614113  72.0007334  59.6448443  71.5253675
  80.0324805  66.3302902  73.5234074  79.9737351  65.6462122  72.8564657
  80.4344323  67.0721892  73.0714700  70.7566960  56.3800766  72.4223134
  70.2204317  55.9291505  73.0744730  70.1683668  56.5146675  71.6793598
  80.0342212  64.2942486  71.7548053  79.1468991  63.9568407  71.8774452
  80.6040763  63.5625517  71.9916819  61.6871359  60.6266577  65.0791105
  62.3742399  60.3128307  64.4912120  61.5319488  61.5307942  64.8058356
  66.4906081  55.5156774  69.5076128  66.4064270  54.9082443  68.7726538
  65.6688787  56.0065792  69.5085625  73.5643365  68.9543938  68.7209296
  73.4913537  69.7598909  69.2328601  73.1220758  69.1535904  67.8957318
  76.6629795  54.0010337  64.8746323  77.1598494  53.2480300  64.5547394
  75.8916776  54.0374654  64.3089533  84.5159552  59.7050703  66.5164615
  84.5049429  60.5875418  66.1458548  83.6476932  59.3522254  66.3219152
  76.0242049  68.8530772  70.8767455  76.7370021  69.4878237  70.8043357
  75.5332077  68.9494638  70.0607457  77.7459576  62.7582025  62.4484747
  76.8115854  62.8783487  62.2789451  77.9236244  61.8554491  62.1844757
  73.2464764  56.1427720  64.6018008  72.8762551  55.5898761  65.2898914
  73.7423856  55.5385854  64.0493008  81.1332127  58.5999344  62.9834781
  81.5992579  59.4327336  62.9095084  81.5839627  58.1344326  63.6880039
  71.0753962  66.6025215  71.6973026  71.7763422  67.2361698  71.8502420
  70.6049077  66.9439947  70.9368665  79.2008358  64.9443165  59.9820933
  79.4768202  64.8299760  60.8914807  78.3312857  64.5460650  59.9433106
  79.1048790  50.9679931  67.0225682  78.1911870  51.1984158  67.1907889
  79.5341891  51.0518375  67.8739715  78.8755248  59.1569823  69.5225576
  78.2226698  59.4045730  68.8678029  79.2535628  58.3433961  69.1888054
  76.1704588  68.1197701  60.8868795  76.6992354  67.6090156  60.2738957
  76.4332807  67.8040231  61.7514328  74.9242821  59.8989634  76.0091613
  74.2483458  59.7983763  76.6793989  75.7470455  59.7428848  76.4727611
  61.2639335  58.7067171  67.3508572  61.3023435  58.1730761  68.1445690
  60.7579628  58.1802376  66.7319549  68.6430097  53.5531711  70.8471114
  68.7071424  54.4146542  70.4348512  68.5797218  52.9405713  70.1143473
  68.1182370  55.6254844  74.4944148  68.7454409  55.2431921  75.1081673
  67.2610289  55.4069046  74.8599841  78.5176478  66.0317819  76.0997884
  79.0616382  66.6447777  75.6052839  77.9363323  66.5897397  76.6164897
  76.8033991  69.1538537  67.2312912  76.6785131  68.3528277  66.7223857
  77.4613083  69.6484730  66.7426881  68.4242160  55.5087269  66.4090052
  67.7028745  56.1223237  66.2697525  69.2135415  56.0445034  66.3306698
  78.8668900  66.9547557  68.8592462  77.9199235  66.8352908  68.7870788
  79.2151673  66.0670055  68.9418723  71.2268473  52.8441696  72.6830704
  71.7502875  53.0903992  73.4457013  71.0080806  53.6761731  72.2633841
  66.6235754  55.1145371  60.5501828  66.2948460  54.2342749  60.3676934
  66.9775125  55.0593039  61.4378218  69.7377577  55.4018340  60.9177306
  70.0773650  55.9304262  60.1955914  70.1849698  55.7398746  61.6935873
  79.4749455  67.5728832  66.1461687  80.3996002  67.3671693  66.0086138
  79.3064758  67.3245233  67.0551028  72.4321018  53.7855391  70.3680374
  72.0917839  52.9863204  70.7701054  71.7260024  54.0857102  69.7957207
  73.0837490  50.8704703  68.8207697  73.9063559  50.3965182  68.6986587
  73.3275554  51.6495187  69.3206383  71.7245725  53.8992962  59.1170599
  72.4454087  54.2774215  58.6134316  71.1011029  54.6181839  59.2205577
  75.8676847  54.6038111  60.0528931  76.0840462  55.4862749  59.7517759
  75.3870915  54.2124324  59.3234573  70.6076069  57.5623824  66.6299676
  70.4620650  57.8764127  67.5223957  70.1301272  58.1808724  66.0770574
  72.4672452  54.5526372  66.6780565  72.4534020  53.6567465  66.3412863
  73.1844880  54.5597036  67.3118851  74.3198582  54.9863712  68.7233693
  74.0616360  55.9080783  68.7218023  73.7883623  54.5894147  69.4134157
  79.2644771  68.0914499  61.5023778  79.4381649  67.5260922  60.7497631
  79.7573662  68.8915394  61.3203268  71.8709348  53.4340752  61.9468135
  71.9925259  52.5057399  62.1459023  71.5811390  53.4479438  61.0346451
  74.7400538  51.1195663  65.0834855  74.7622235  51.1834996  64.1286835
  75.1568597  50.2800171  65.2775361  85.1184162  60.8550922  63.1214078
  85.5615308  60.1058248  62.7233201  84.2410673  60.8461059  62.7387810
  80.2519944  67.4081264  58.6020676  80.9470848  68.0287957  58.8207991
  80.5943094  66.5576615  58.8773054  65.8687753  59.2299065  72.4617494
  65.1269489  59.3781700  73.0482124  65.5480497  59.4907330  71.5984243
  82.1511367  64.8580969  60.1308007  82.6762691  65.1968242  59.4057327
  82.0633719  63.9227985  59.9471142  73.8131415  68.7715043  72.2597884
  74.1218542  68.5264190  73.1320583  74.6106897  68.9761681  71.7716754
  71.3550427  54.9472750  76.1558068  71.4038583  55.8234873  75.7735838
  71.8972941  54.4050143  75.5829711  81.8405273  65.4913873  75.4359205
  81.0500817  65.4738012  74.8963704  81.6038627  66.0302167  76.1908242
  81.9603148  62.3406339  72.7491934  82.0101153  62.1756347  73.6907456
  81.8517071  61.4733598  72.3589814  79.2506910  58.3237267  74.0651240
  80.1516773  58.1843732  73.7735238  79.3254885  58.4891722  75.0049418
  73.5849716  55.7004122  72.9104427  72.7153025  55.9937688  72.6387015
  73.8209196  56.2844567  73.6311690  83.4621345  64.7603281  72.9933955
  83.1706153  65.1233261  73.8297416  82.8493476  64.0470289  72.8147287
  84.6617027  62.3256161  65.5136525  85.4963918  62.7645965  65.6774086
  84.7976156  61.8494814  64.6944771  81.7108533  59.8835896  71.4614013
  82.1862655  60.0763542  70.6532865  80.7874098  59.9395081  71.2157397
  76.2888749  51.9183739  70.4269847  76.8070693  52.6544766  70.1016336
  75.9343882  52.2247732  71.2616606  67.8687687  56.7788420  58.5431253
  67.1756932  56.8532775  57.8871289  67.6239439  56.0148764  59.0652770
  76.5401344  48.3384022  65.9470744  76.8203097  47.6707211  66.5731170
  77.3251951  48.5313117  65.4345407  80.4110202  56.7601656  69.6942319
  81.3627625  56.8599753  69.7154543  80.2413652  55.9679924  70.2040403
  78.4324581  53.8457239  69.8801720  77.8374514  54.1262252  69.1848208
  78.1474278  54.3351140  70.6518461  77.5632072  67.7980166  58.6404352
  78.4962745  67.7325727  58.8437228  77.4755285  68.6336432  58.1818885
  80.1920089  67.1146036  55.6008300  80.1133720  66.7805900  56.4944058
  81.0129755  67.6067804  55.5999772  82.8898280  59.9807775  68.8084618
  82.8574600  59.0423776  68.9944302  83.4998903  60.0591812  68.0750443
  83.0392768  56.7718819  68.8542902  82.5231817  55.9877275  68.6672830
  83.9232717  56.4437535  69.0189421  80.7003495  50.5159834  64.8138714
  80.5028316  50.2074922  65.6982046  81.3103201  51.2421473  64.9436644
  88.7074830  61.0423782  67.9490655  89.4378218  60.7809070  68.5098358
  88.0981775  60.3052504  67.9892723  86.7890127  59.1831645  68.5465106
  86.0623290  59.0487610  67.9381598  86.3737414  59.4908473  69.3521824
  74.6120303  62.9021574  76.3112479  75.5323313  63.0800173  76.5052526
  74.5769886  61.9577620  76.1592179  63.8302468  58.0960168  65.2365754
  63.5105252  57.2425476  64.9440128  63.2835896  58.3108746  65.9923721
  74.5286593  51.3190694  60.9410949  73.7187322  50.9737779  61.3166195
  75.2171010  51.0098238  61.5298560  76.4577142  50.3968741  62.5635246
  77.0108180  50.8164195  63.2225269  76.6947228  49.4704489  62.6058202
  72.4810241  56.3855815  78.3438009  72.3806968  57.3350172  78.2750101
  72.2631783  56.0574054  77.4714080  79.8355949  52.5069266  62.0713910
  79.2554618  53.1654070  61.6891962  79.5691882  51.6846611  61.6601327
  78.2859515  51.9074324  64.2735230  78.7859294  52.0190859  63.4649549
  78.9295123  51.6035377  64.9136039  72.3441511  59.8152954  77.1603071
  71.8608593  60.6153314  77.3666960  72.4302450  59.8260899  76.2070515
  68.8614231  62.2758604  71.7642303  69.6807120  62.7702683  71.7877140
  69.1351038  61.3590573  71.7359870  78.6180827  54.6669357  61.1270258
  77.7306682  54.9519007  60.9090453  79.0334816  54.5063120  60.2797535
  81.9695363  54.6915878  64.8424597  82.7455753  55.1812330  65.1149214
  81.2443497  55.1173932  65.2996467  84.4067922  55.4043497  65.8998538
  85.0012412  55.1639233  65.1891846  84.4794505  54.6850627  66.5272074
  78.5921851  60.1823893  61.3420548  78.5357052  60.6392444  60.5028181
  79.1450193  59.4214577  61.1643391  82.4026657  55.9713625  62.1670668
  82.1463591  55.5710260  62.9978875  81.7779525  56.6857418  62.0420807
  86.7138994  58.7109698  64.6741959  86.1538552  58.7802887  65.4473521
  86.1082498  58.5350682  63.9541455  79.6710738  64.8696561  57.2716738
  80.5056342  64.4377759  57.0894213  79.5095081  64.6978574  58.1993633
  79.3256630  61.3728674  58.6373077  79.2705434  61.2072945  57.6961522
  78.7002685  62.0804707  58.7935267  64.1149145  56.6096738  72.4634500
  64.7608009  56.0995692  72.9521725  63.9066296  57.3465420  73.0377925
  76.6402537  63.6777586  77.9626640  77.5093697  63.8518238  77.6013275
  76.1609289  64.4972003  77.8402370  72.6352755  50.8736783  58.2158396
  72.6231425  51.8178623  58.3726667  73.5276177  50.6906928  57.9217857
  76.4504875  47.4679560  62.4704333  75.6837271  46.9138046  62.6161015
  76.8615580  47.5401428  63.3318484  68.4546636  53.7564355  76.5609514
  69.3178097  53.4001160  76.7712838  67.8812047  53.4178250  77.2484918
  88.2995013  75.3866212  67.3671915  88.9373423  75.2672959  66.6635255
  88.1815856  76.3347056  67.4259867  85.1084719  75.3393640  67.3033440
  84.7703231  75.2234705  66.4153974  85.9774487  74.9384805  67.2834446
  80.9671535  77.1929116  63.2930331  80.4036400  77.1019053  62.5246618
  80.8523930  76.3729021  63.7732823  85.5904502  76.4928492  73.2619645
  85.5793143  76.0981290  72.3900149  85.7525142  75.7594564  73.8553417
  78.5135967  78.6880308  66.1314551  79.3057259  78.3471132  65.7160850
  78.7532617  78.7975283  67.0516704  86.5471094  80.8600084  58.6044795
  85.8959073  81.4454164  58.2178809  87.3415456  81.3906279  58.6639833
  80.4726721  77.9489221  59.0031930  81.2457597  77.4018208  58.8644806
  80.8252120  78.8133470  59.2146391  82.3111763  79.2765603  72.2098829
  82.0201629  80.1811234  72.0945495  82.9468748  79.3182131  72.9242899
  83.2367970  76.6542452  68.8000189  83.8331542  76.4298474  68.0857152
  83.2942942  75.9127197  69.4025637  82.8092998  74.1081887  56.6350380
  83.0618519  73.5863408  55.8733843  81.8717558  73.9448033  56.7377063
  87.8536281  73.1117666  64.4425123  88.6399371  72.6937089  64.0915540
  88.1174986  74.0163758  64.6106771  88.0246359  78.5490516  59.1413780
  87.3892192  78.6225142  59.8534684  87.6943765  79.1384115  58.4632859
  93.2544708  73.0492899  65.3458101  93.9869880  72.4792116  65.5795931
  92.4984064  72.6614499  65.7864607  82.5289287  76.0109993  58.8374755
  82.4125545  75.3354897  59.5055839  82.6391547  75.5242367  58.0206908
  84.8720828  75.4720140  62.5421444  84.5079035  74.9450761  63.2534365
  85.7287944  75.0818609  62.3687929  90.7770129  66.7614473  69.8052710
  90.4453454  67.6309884  69.5813925  90.1815742  66.4450757  70.4846740
  84.5126315  70.5010040  57.5382792  84.6800717  71.3690276  57.9053263
  84.3223484  70.6637322  56.6144082  87.2701648  78.9627019  69.2048623
  86.9702371  79.8652058  69.0964430  86.9252708  78.6959202  70.0569776
  80.7214130  75.4140816  65.2385327  79.7964626  75.2817030  65.4463019
  80.9698543  76.1935035  65.7355270  90.6698792  71.4809559  66.8846060
  89.7615669  71.4124967  66.5904821  90.6186388  71.9581504  67.7127886
  84.4915536  72.9567697  58.5229459  84.3715161  73.4024748  59.3614940
  83.7968124  73.3053015  57.9642997  78.0822941  75.0574089  66.0729116
  78.2115322  75.3108568  66.9868528  77.4020392  75.6501797  65.7533771
  82.2522428  85.7271339  62.1719590  82.1746458  86.6779164  62.2508071
  81.6484072  85.3817212  62.8294517  84.7439658  72.8999205  74.8280957
  83.9672992  73.4593125  74.8183822  85.3830221  73.3855988  75.3495827
  92.5360439  69.6825997  68.6623934  91.8934819  69.9758531  68.0163729
  92.0315367  69.5678918  69.4677131  90.1900602  73.4289171  59.3509793
  91.1018458  73.6616557  59.1757491  89.6810249  74.0126215  58.7884872
  82.9986030  75.7084658  74.3898924  83.7400715  76.2469702  74.1133748
  82.2923016  76.3350947  74.5470476  88.4741370  77.8513798  72.9871086
  88.8824726  77.4096209  72.2425718  87.7518631  77.2766426  73.2405279
  84.8272440  72.7886405  70.3604643  85.6733635  73.2125819  70.5039292
  84.7671078  72.1320030  71.0543206  88.7970184  78.4114989  66.7423375
  88.1679047  78.5760703  66.0399443  88.4095847  78.8256599  67.5134339
  92.6759416  79.3469427  64.0967738  91.9910455  79.7268328  63.5464772
  92.7603266  79.9564754  64.8299686  87.9771885  70.4490774  72.0185816
  87.7332817  71.2032834  71.4820092  88.2531816  70.8276121  72.8533063
  89.9310348  76.9929386  70.6963082  90.1427243  77.6361146  70.0197463
  89.8840096  76.1591703  70.2285012  87.5336577  69.6047207  67.5999654
  86.6721056  69.9028460  67.8916392  87.5599012  69.8217605  66.6680687
  84.3498146  78.1489397  64.0073460  84.8136492  78.4277100  63.2178082
  84.0854944  77.2472842  63.8246551  81.2422227  77.6960879  66.9453223
  81.8123584  78.1248147  66.3070708  81.8330339  77.4143463  67.6437409
  83.2867032  74.2712550  60.8163025  83.9891076  74.7233593  61.2836951
  82.9547661  73.6296368  61.4442918  81.7347394  72.8624306  75.1914234
  81.1046055  73.5440587  75.4249631  81.6283482  72.7507388  74.2467373
  77.0292366  72.5296102  66.1180159  76.2391420  72.7853631  65.6420269
  77.5203614  73.3444440  66.2232199  91.0456176  79.8701341  68.8685439
  91.8673620  79.4681529  68.5868121  91.0418579  79.7669576  69.8201555
  78.9807112  72.8940681  63.0763635  78.1838275  73.0059376  63.5947131
  78.7532704  73.2327334  62.2104526  84.8112779  79.4185385  71.0246150
  84.8757212  79.8805792  71.8604322  84.1023703  78.7882750  71.1528460
  75.3130069  72.7826593  68.5495149  75.5638108  73.6673603  68.8152725
  75.8489618  72.6031194  67.7770241  99.1362169  76.2140090  65.2170411
  98.3825877  75.6447488  65.0614415  99.2709710  76.1802754  66.1641046
  84.5260797  81.0853492  60.8925130  84.3906472  81.9305028  61.3209978
  85.0670610  81.2872770  60.1291064  81.0128137  67.1645072  77.5539485
  80.6195082  66.6111271  78.2287130  81.8294277  67.4755650  77.9446003
  77.9790194  78.6028930  61.4653055  78.4914715  79.3972180  61.6158620
  78.6312907  77.9055221  61.3986657  79.7885079  81.7194686  63.5475808
  79.9651707  82.6412651  63.3596792  80.5841913  81.4053106  63.9770188
  83.9296098  68.5802951  75.1459742  84.6705811  69.1810104  75.0664204
  84.1614020  67.8380589  74.5877785  79.0737436  73.7659318  73.4237972
  78.9590951  72.8644576  73.7245071  78.2181953  74.0123015  73.0722788
  86.1529273  81.7077059  75.0225472  85.7093128  80.9213437  74.7046377
  86.8146487  81.8956209  74.3569363  80.9116395  83.2372860  69.5486151
  81.4623820  83.1089924  68.7763145  80.0727870  83.5367749  69.1981044
  88.2510511  81.9879859  73.0506874  88.2328987  82.8088740  72.5587143
  89.1730432  81.8633934  73.2757015  84.7083566  79.5023988  73.8930382
  85.2411902  78.7412276  73.6629690  84.1797647  79.2097640  74.6354536
  87.8753261  64.6084054  69.4224024  87.5317530  65.4985696  69.3463134
  88.2432223  64.4185712  68.5593609  75.9439111  76.9317584  62.2412626
  76.7814333  77.3414593  62.0246334  76.1217379  75.9917027  62.2112820
  87.8403543  74.5992665  57.9296459  87.3250167  75.3697270  58.1684846
  87.5680852  73.9257801  58.5529520  85.4250654  69.4442366  62.9881697
  84.5692251  69.0549216  62.8087336  85.8377606  69.5234327  62.1281483
  86.9549801  66.9788709  67.3873257  86.4514597  66.9418844  66.5741062
  87.2480408  67.8881452  67.4469914  83.1992687  67.0627439  66.3939439
  84.0645684  66.8670248  66.0345328  83.2670196  66.8337791  67.3208795
  92.8137817  77.3525020  59.8649632  92.0367260  77.0136179  59.4204794
  93.4929298  77.3577643  59.1904597  87.6289846  72.4719757  59.7556240
  87.3239982  72.7865906  60.6066383  88.5820289  72.5501177  59.7983573
  86.0736278  78.6309981  61.4049194  85.5457640  77.8962740  61.0922431
  85.5723781  79.4084657  61.1589162  91.0529124  76.8259001  66.5216240
  90.3952799  77.5158262  66.6096369  91.8569524  77.2155433  66.8650227
  80.8055006  69.2929647  63.7655805  81.3798758  69.0704828  63.0328998
  81.3925988  69.3618341  64.5184407  89.8634583  75.1803374  64.5720182
  90.3766465  75.8133366  65.0741892  90.5135807  74.5804569  64.2063542
  81.1324593  71.3234108  57.7851691  80.2961905  71.6608794  58.1060965
  80.9929363  71.1883088  56.8478828  83.1077674  66.1670896  62.4930875
  82.4542086  65.8519913  61.8687490  83.0658148  65.5446636  63.2190698
  87.1256957  85.1587698  57.3280853  86.4518656  85.4619395  57.9365811
  87.5122779  85.9616778  56.9786310  86.3415414  72.6552829  66.8178522
  85.4237975  72.8767776  66.6600211  86.7575558  72.7299140  65.9590230
  87.1250462  74.0544245  61.9481203  87.8722281  74.5665642  61.6388325
  87.3942051  73.7328298  62.8085596  85.3977112  76.5502786  58.9308157
  84.4888331  76.2661819  59.0280627  85.4272196  76.9701864  58.0711464
  90.6296379  80.1609375  62.6999325  90.1758706  79.3200285  62.7564515
  89.9990346  80.7970774  63.0374105  89.5729299  71.0901361  63.9299992
  88.8352056  70.5778747  64.2610235  89.8256072  70.6501743  63.1183269
  89.0729319  81.9985872  63.6349143  89.3652293  82.5590929  62.9161508
  89.5827939  82.2914433  64.3902302  89.6740926  63.8677613  64.5241761
  89.9799803  63.0074977  64.2367676  90.3993531  64.4595233  64.3240755
  75.9665282  74.2708300  62.9123359  75.7689682  73.6777661  62.1874426
  75.4111946  73.9660510  63.6299298  83.9462006  74.1631406  65.0317952
  84.0010616  73.2105243  64.9560429  83.1353208  74.3190845  65.5159251
  85.0953200  78.0911529  56.2696236  84.6572630  77.3747388  55.8101873
  85.8363641  78.3187644  55.7081327  81.8854366  72.7808466  62.7908331
  81.0722231  73.0802637  63.1973523  82.3813360  72.3864155  63.5082814
  84.0362944  82.7766223  64.7242596  83.9939123  83.0027069  63.7951128
  84.9525643  82.5429598  64.8728397  87.4828578  73.2450291  71.6223225
  87.8377965  73.4721764  72.4817691  88.1300709  73.5768667  71.0000480
  93.2126315  76.3668726  62.3272554  93.0744213  76.5570322  61.3993743
  92.8562533  77.1288109  62.7840605  81.3768441  70.3526822  68.4069566
  82.0167820  70.2115581  67.7092530  80.5445971  70.0661335  68.0308168
  93.2395694  78.4345253  67.3383826  93.6732201  78.3420543  68.1866880
  93.9527275  78.4102754  66.7003842  82.1528745  79.6529252  64.5204559
  82.9469343  79.1579572  64.3187134  81.4420437  79.1247115  64.1572264
  86.9723589  82.0347348  68.8716926  87.0260611  82.6038284  69.6394642
  86.1038370  82.2049233  68.5070963  78.4611508  73.7972334  60.5964311
  77.5309096  73.7356789  60.8134273  78.5568980  73.2748286  59.8000953
  78.3797057  70.3227147  63.1842553  78.6403874  71.2372480  63.0751713
  79.2014229  69.8551589  63.3339166  79.8521982  71.7364904  70.3541378
  80.5245036  71.5282266  69.7054026  79.0251769  71.5386990  69.9146610
  94.1011244  78.4768954  69.8716711  94.2947134  79.3814765  70.1175986
  94.0011862  78.0176373  70.7055296  85.7547554  68.3626845  72.3707038
  85.1075469  69.0616794  72.2771515  86.5248570  68.7962989  72.7383287
  89.1626352  78.6275697  75.4457592  89.0111859  78.3986249  74.5287675
  89.1531032  79.5846298  75.4588937  85.9311689  76.2007610  70.4303858
  86.8603749  76.3518769  70.2572825  85.5102719  76.2891630  69.5752505
  84.7300021  80.2258274  68.2002396  84.5911106  79.8577058  69.0728334
  83.9414617  80.7405913  68.0286354  85.3248173  85.3267370  59.5427932
  85.4999928  84.8555414  60.3573555  84.6380961  85.9533137  59.7709193
  86.2805236  79.6039877  65.5891234  85.9455068  79.5640647  66.4848883
  85.7809181  78.9384593  65.1161644  80.2549480  75.0107507  71.1143815
  80.1169278  74.2787746  71.7155354  81.1654403  74.9216407  70.8328002
  89.2164427  76.9495911  55.8628293  88.5993598  76.2242739  55.7661346
  88.7480916  77.7105271  55.5195367  82.8831780  74.7227466  70.6027494
  83.5931399  74.0820658  70.5614113  82.8401089  74.9740361  71.5253675
  90.8718559  81.6594819  73.5234074  90.8131105  80.9754039  72.8564657
  91.2738077  82.4013809  73.0714700  81.5960714  71.7092684  72.4223134
  81.0598071  71.2583422  73.0744730  81.0077423  71.8438593  71.6793598
  79.8909258  88.4756733  66.3167792  80.1305856  89.1075257  66.9946811
  79.0478454  88.1244773  66.6033152  90.8735966  79.6234403  71.7548053
  89.9862745  79.2860325  71.8774452  91.4434517  78.8917435  71.9916819
  77.3299836  70.8448692  69.5076128  77.2458024  70.2374361  68.7726538
  76.5082542  71.3357710  69.5085625  84.4037120  84.2835856  68.7209296
  84.3307291  85.0890827  69.2328601  83.9614513  84.4827821  67.8957318
  84.1926899  83.5207626  62.2312118  83.4094421  84.0629306  62.3250343
  84.8919644  84.0381605  62.6306359  87.5023549  69.3302255  64.8746323
  87.9992249  68.5772217  64.5547394  86.7310531  69.3666572  64.3089533
  95.3553307  75.0342621  66.5164615  95.3443183  75.9167336  66.1458548
  94.4870686  74.6814171  66.3219152  86.8635803  84.1822690  70.8767455
  87.5763775  84.8170154  70.8043357  86.3725832  84.2786556  70.0607457
  88.5853330  78.0873942  62.4484747  87.6509609  78.2075405  62.2789451
  88.7629999  77.1846409  62.1844757  84.0858518  71.4719638  64.6018008
  83.7156306  70.9190679  65.2898914  84.5817611  70.8677772  64.0493008
  91.9725881  73.9291262  62.9834781  92.4386334  74.7619253  62.9095084
  92.4233382  73.4636243  63.6880039  81.9147717  81.9317133  71.6973026
  82.6157176  82.5653616  71.8502420  81.4442832  82.2731865  70.9368665
  90.0402113  80.2735083  59.9820933  90.3161956  80.1591678  60.8914807
  89.1706611  79.8752568  59.9433106  89.9442544  66.2971849  67.0225682
  89.0305624  66.5276075  67.1907889  90.3735646  66.3810293  67.8739715
  89.7149003  74.4861741  69.5225576  89.0620453  74.7337648  68.8678029
  90.0929383  73.6725879  69.1888054  86.6756177  84.5221434  63.6253747
  86.8578571  83.7043090  64.0881499  87.4989163  84.7389126  63.1878637
  87.0098342  83.4489619  60.8868795  87.5386109  82.9382073  60.2738957
  87.2726562  83.1332149  61.7514328  85.7636576  75.2281552  76.0091613
  85.0877213  75.1275681  76.6793989  86.5864210  75.0720765  76.4727611
  77.5115435  81.4653488  68.6304129  78.0968872  80.7197176  68.7632033
  77.3140273  81.7757445  69.5140793  80.3654090  84.5004736  63.6466571
  79.6964465  84.9850863  63.1630611  80.2266960  84.7473956  64.5609950
  84.5059359  86.5348479  70.2449229  85.0577667  86.6980101  71.0098315
  84.8465552  87.1252917  69.5729254  79.4823852  68.8823629  70.8471114
  79.5465178  69.7438460  70.4348512  79.4190972  68.2697631  70.1143473
  78.9576124  70.9546761  74.4944148  79.5848163  70.5723839  75.1081673
  78.1004043  70.7360963  74.8599841  89.3570233  81.3609737  76.0997884
  89.9010137  81.9739695  75.6052839  88.7757078  81.9189315  76.6164897
  75.7341667  72.7623191  60.4262503  76.0295108  71.8533869  60.3729557
  74.8329703  72.7410930  60.1043506  87.6427746  84.4830455  67.2312912
  87.5178885  83.6820194  66.7223857  88.3006837  84.9776648  66.7426881
  79.2635914  70.8379187  66.4090052  78.5422500  71.4515155  66.2697525
  80.0529170  71.3736952  66.3306698  89.7062654  82.2839475  68.8592462
  88.7592990  82.1644826  68.7870788  90.0545427  81.3961973  68.9418723
  82.0662228  68.1733614  72.6830704  82.5896629  68.4195910  73.4457013
  81.8474561  69.0053648  72.2633841  77.4629509  70.4437288  60.5501828
  77.1342215  69.5634667  60.3676934  77.8168879  70.3884957  61.4378218
  86.7109088  82.0792191  65.0596814  86.5634050  81.1508898  65.2404384
  87.5362581  82.1012282  64.5753889  80.5771332  70.7310258  60.9177306
  80.9167404  71.2596179  60.1955914  81.0243452  71.0690664  61.6935873
  90.3143209  82.9020750  66.1461687  91.2389757  82.6963611  66.0086138
  90.1458513  82.6537151  67.0551028  83.2714773  69.1147309  70.3680374
  82.9311593  68.3155122  70.7701054  82.5653779  69.4149020  69.7957207
  83.9231245  66.1996621  68.8207697  84.7457314  65.7257099  68.6986587
  84.1669308  66.9787105  69.3206383  82.5639479  69.2284880  59.1170599
  83.2847842  69.6066132  58.6134316  81.9404783  69.9473756  59.2205577
  86.7070602  69.9330029  60.0528931  86.9234216  70.8154666  59.7517759
  86.2264669  69.5416242  59.3234573  81.4469823  72.8915742  66.6299676
  81.3014404  73.2056045  67.5223957  80.9695027  73.5100642  66.0770574
  83.3066206  69.8818290  66.6780565  83.2927775  68.9859383  66.3412863
  84.0238634  69.8888954  67.3118851  85.1592337  70.3155630  68.7233693
  84.9010115  71.2372701  68.7218023  84.6277377  69.9186065  69.4134157
  90.1038526  83.4206417  61.5023778  90.2775403  82.8552840  60.7497631
  90.5967417  84.2207312  61.3203268  75.9215485  75.4321086  69.5687337
  75.3768954  76.2080894  69.7007611  76.7994835  75.7791891  69.4106458
  82.7103102  68.7632670  61.9468135  82.8319013  67.8349316  62.1459023
  82.4205144  68.7771356  61.0346451  85.5794292  66.4487580  65.0834855
  85.6015989  66.5126914  64.1286835  85.9962351  65.6092089  65.2775361
  95.9577917  76.1842840  63.1214078  96.4009063  75.4350165  62.7233201
  95.0804427  76.1752976  62.7387810  91.0913698  82.7373182  58.6020676
  91.7864603  83.3579874  58.8207991  91.4336848  81.8868533  58.8773054
  76.7081507  74.5590982  72.4617494  75.9663243  74.7073618  73.0482124
  76.3874252  74.8199248  71.5984243  92.9905121  80.1872887  60.1308007
  93.5156445  80.5260160  59.4057327  92.9027474  79.2519902  59.9471142
  84.6525170  84.1006961  72.2597884  84.9612296  83.8556107  73.1320583
  85.4500652  84.3053599  71.7716754  84.6745782  86.2544870  64.4903260
  84.2350772  85.7621249  65.1836117  85.4253899  85.7117838  64.2495336
  77.1538121  82.4456411  64.4927888  77.9796141  82.1460183  64.1126532
  76.8032173  81.6764034  64.9417677  82.1219654  81.7982879  66.5625562
  81.4999663  81.1353584  66.2627790  82.7924521  81.8244011  65.8799210
  75.3546726  80.3642738  65.4516822  74.5178634  79.9364912  65.2700823
  75.3270371  80.5575181  66.3887613  82.1944182  70.2764667  76.1558068
  82.2432337  71.1526790  75.7735838  82.7366696  69.7342060  75.5829711
  92.6799027  80.8205791  75.4359205  91.8894571  80.8029930  74.8963704
  92.4432382  81.3594084  76.1908242  92.7996902  77.6698257  72.7491934
  92.8494907  77.5048264  73.6907456  92.6910826  76.8025516  72.3589814
  81.6833161  80.3486803  60.0384023  81.8321281  81.0322267  59.3850695
  82.4899605  80.3291893  60.5533478  90.0900665  73.6529185  74.0651240
  90.9910528  73.5135650  73.7735238  90.1648639  73.8183640  75.0049418
  84.4243470  71.0296040  72.9104427  83.5546779  71.3229606  72.6387015
  84.6602950  71.6136485  73.6311690  94.3015099  80.0895199  72.9933955
  94.0099907  80.4525179  73.8297416  93.6887230  79.3762207  72.8147287
  95.5010781  77.6548078  65.5136525  96.3357673  78.0937882  65.6774086
  95.6369910  77.1786732  64.6944771  92.5502287  75.2127813  71.4614013
  93.0256409  75.4055460  70.6532865  91.6267853  75.2686999  71.2157397
  79.4385794  76.3751980  61.0445091  79.1931836  75.4714310  61.2425302
  79.6081709  76.3769131  60.1024569  87.1282504  67.2475657  70.4269847
  87.6464448  67.9836684  70.1016336  86.7737637  67.5539650  71.2616606
  78.7081442  72.1080338  58.5431253  78.0150687  72.1824693  57.8871289
  78.4633193  71.3440682  59.0652770  87.3795098  63.6675939  65.9470744
  87.6596852  62.9999128  66.5731170  88.1645705  63.8605035  65.4345407
  85.1828567  82.8434933  57.5095770  84.6102534  83.4625120  57.0566242
  85.7561360  83.3934295  58.0435692  91.2503956  72.0893573  69.6942319
  92.2021379  72.1891671  69.7154543  91.0807407  71.2971842  70.2040403
  89.2718336  69.1749156  69.8801720  88.6768268  69.4554169  69.1848208
  88.9868033  69.6643057  70.6518461  88.4025826  83.1272083  58.6404352
  89.3356500  83.0617645  58.8437228  88.3149039  83.9628350  58.1818885
  91.0313843  82.4437954  55.6008300  90.9527475  82.1097817  56.4944058
  91.8523510  82.9359722  55.5999772  93.7292034  75.3099693  68.8084618
  93.6968354  74.3715694  68.9944302  94.3392658  75.3883730  68.0750443
  85.5675365  74.1795746  54.8511822  86.5134470  74.0501954  54.9200240
  85.1889610  73.4410408  55.3281251  93.8786523  72.1010736  68.8542902
  93.3625571  71.3169193  68.6672830  94.7626471  71.7729453  69.0189421
  91.5397250  65.8451752  64.8138714  91.3422071  65.5366840  65.6982046
  92.1496955  66.5713391  64.9436644  99.5468584  76.3715700  67.9490655
 100.2771973  76.1100988  68.5098358  98.9375530  75.6344422  67.9892723
  97.6283881  74.5123562  68.5465106  96.9017045  74.3779527  67.9381598
  97.2131168  74.8200391  69.3521824  85.4514058  78.2313492  76.3112479
  86.3717067  78.4092091  76.5052526  85.4163641  77.2869537  76.1592179
  83.7518282  72.1045722  54.7866708  82.8449738  71.8078835  54.8629421
  84.0294263  71.8075540  53.9200994  74.6696223  73.4252086  65.2365754
  74.3499007  72.5717394  64.9440128  74.1229651  73.6400664  65.9923721
  78.4476130  76.1414527  68.9535261  78.6662140  77.0731635  68.9723294
  78.8601904  75.7822501  69.7390064  85.3680348  66.6482612  60.9410949
  84.5581076  66.3029697  61.3166195  86.0564765  66.3390156  61.5298560
  87.2970896  65.7260659  62.5635246  87.8501935  66.1456112  63.2225269
  87.5340983  64.7996407  62.6058202  83.3203995  71.7147732  78.3438009
  83.2200722  72.6642089  78.2750101  83.1025538  71.3865971  77.4714080
  82.5217067  68.9632658  54.9278687  83.3836231  69.2887556  55.1874504
  82.7067411  68.1764153  54.4151753  74.5384483  77.0454997  67.2058876
  73.8447954  76.6308950  66.6928830  75.2857474  77.0875534  66.6092295
  90.6749703  67.8361184  62.0713910  90.0948372  68.4945988  61.6891962
  90.4085636  67.0138529  61.6601327  89.1253270  67.2366242  64.2735230
  89.6253048  67.3482776  63.4649549  89.7688878  66.9327295  64.9136039
  83.1835266  75.1444871  77.1603071  82.7002347  75.9445231  77.3666960
  83.2696205  75.1552816  76.2070515  76.4521225  76.9773251  65.0824890
  76.4291913  77.0760938  64.1306774  76.7621862  77.8238402  65.4042057
  79.1108603  79.0349406  69.1971505  80.0651857  79.0033348  69.1301436
  78.9121127  78.5740030  70.0121731  79.7007985  77.6050522  71.7642303
  80.5200874  78.0994601  71.7877140  79.9744793  76.6882490  71.7359870
  89.4574581  69.9961274  61.1270258  88.5700436  70.2810925  60.9090453
  89.8728570  69.8355038  60.2797535  92.8089117  70.0207795  64.8424597
  93.5849508  70.5104248  65.1149214  92.0837252  70.4465850  65.2996467
  95.2461676  70.7335415  65.8998538  95.8406167  70.4931151  65.1891846
  95.3188260  70.0142545  66.5272074  77.4658832  84.5769026  66.2141703
  77.3313300  83.8169426  65.6479701  77.0490894  85.3009925  65.7470492
  88.6017795  79.7605949  55.2218278  89.3053645  79.9655952  55.8375934
  87.8780444  80.3282711  55.4867362  89.4315605  75.5115810  61.3420548
  89.3750806  75.9684362  60.5028181  89.9843948  74.7506495  61.1643391
  93.2420411  71.3005542  62.1670668  92.9857345  70.9002178  62.9978875
  92.6173279  72.0149336  62.0420807  97.5532749  74.0401615  64.6741959
  96.9932307  74.1094805  65.4473521  96.9476252  73.8642600  63.9541455
  80.6227958  85.4738343  66.4260145  80.5060342  86.4183775  66.3238836
  79.8020404  85.1711904  66.8145945  90.5104492  80.1988478  57.2716738
  91.3450096  79.7669677  57.0894213  90.3488835  80.0270492  58.1993633
  90.1650384  76.7020592  58.6373077  90.1099188  76.5364863  57.6961522
  89.5396440  77.4096624  58.7935267  74.9542899  71.9388656  72.4634500
  75.6001763  71.4287610  72.9521725  74.7460051  72.6757338  73.0377925
  87.4796292  79.0069503  77.9626640  88.3487451  79.1810156  77.6013275
  87.0003043  79.8263920  77.8402370  83.4746510  66.2028701  58.2158396
  83.4625180  67.1470540  58.3726667  84.3669932  66.0198846  57.9217857
  81.6482472  86.1266604  69.6416074  82.5509719  86.1590215  69.9582569
  81.4219842  85.1967055  69.6562410  83.4036074  84.8797591  66.3026152
  82.4531705  84.8799453  66.1890525  83.7068560  84.1330326  65.7862187
  87.2898629  62.7971477  62.4704333  86.5231025  62.2429964  62.6161015
  87.7009334  62.8693346  63.3318484  79.2940390  69.0856273  76.5609514
  80.1571852  68.7293078  76.7712838  78.7205801  68.7470168  77.2484918
  99.1388767  90.7158129  67.3671915  99.7767177  90.5964877  66.6635255
  99.0209610  91.6638973  67.4259867  95.9478474  90.6685557  67.3033440
  95.6096985  90.5526622  66.4153974  96.8168242  90.2676723  67.2834446
  91.8065289  92.5221034  63.2930331  91.2430154  92.4310971  62.5246618
  91.6917684  91.7020938  63.7732823  96.4298257  91.8220409  73.2619645
  96.4186897  91.4273207  72.3900149  96.5918896  91.0886482  73.8553417
  89.3529721  94.0172225  66.1314551  90.1451013  93.6763050  65.7160850
  89.5926371  94.1267201  67.0516704  91.3120475  93.2781139  59.0031930
  92.0851351  92.7310126  58.8644806  91.6645874  94.1425388  59.2146391
  93.1505518  94.6057521  72.2098829  92.8595384  95.5103152  72.0945495
  93.7862502  94.6474049  72.9242899  94.0761725  91.9834370  68.8000189
  94.6725297  91.7590392  68.0857152  94.1336696  91.2419115  69.4025637
  93.6486753  89.4373805  56.6350380  93.9012274  88.9155326  55.8733843
  92.7111312  89.2739950  56.7377063  98.6930036  88.4409583  64.4425123
  99.4793125  88.0229006  64.0915540  98.9568740  89.3455675  64.6106771
 104.0938463  88.3784816  65.3458101 104.8263635  87.8084033  65.5795931
 103.3377819  87.9906417  65.7864607  93.3683042  91.3401911  58.8374755
  93.2519300  90.6646814  59.5055839  93.4785302  90.8534285  58.0206908
  95.7114583  90.8012058  62.5421444  95.3472790  90.2742679  63.2534365
  96.5681699  90.4110527  62.3687929 101.6163883  82.0906391  69.8052710
 101.2847208  82.9601802  69.5813925 101.0209497  81.7742675  70.4846740
  95.3520070  85.8301958  57.5382792  95.5194472  86.6982194  57.9053263
  95.1617239  85.9929239  56.6144082  91.5607884  90.7432733  65.2385327
  90.6358381  90.6108947  65.4463019  91.8092297  91.5226953  65.7355270
 101.5092547  86.8101477  66.8846060 100.6009424  86.7416885  66.5904821
 101.4580142  87.2873422  67.7127886  95.3309291  88.2859615  58.5229459
  95.2108916  88.7316666  59.3614940  94.6361879  88.6344933  57.9642997
  88.9216695  90.3866007  66.0729116  89.0509076  90.6400486  66.9868528
  88.2414147  90.9793715  65.7533771  95.5833412  88.2291122  74.8280957
  94.8066746  88.7885042  74.8183822  96.2223975  88.7147905  75.3495827
 103.3754193  85.0117915  68.6623934 102.7328573  85.3050448  68.0163729
 102.8709122  84.8970835  69.4677131 101.0294357  88.7581088  59.3509793
 101.9412213  88.9908475  59.1757491 100.5204004  89.3418133  58.7884872
  93.8379785  91.0376576  74.3898924  94.5794469  91.5761620  74.1133748
  93.1316770  91.6642864  74.5470476  99.3135124  93.1805716  72.9871086
  99.7218480  92.7388127  72.2425718  98.5912386  92.6058344  73.2405279
  95.6666194  88.1178323  70.3604643  96.5127390  88.5417736  70.5039292
  95.6064832  87.4611947  71.0543206  98.8165640  85.7782691  72.0185816
  98.5726572  86.5324752  71.4820092  99.0925570  86.1568039  72.8533063
  98.3730331  84.9339124  67.5999654  97.5114810  85.2320378  67.8916392
  98.3992766  85.1509523  66.6680687  95.1891901  93.4781315  64.0073460
  95.6530246  93.7569018  63.2178082  94.9248699  92.5764759  63.8246551
  92.0815982  93.0252796  66.9453223  92.6517339  93.4540065  66.3070708
  92.6724094  92.7435381  67.6437409  94.1260787  89.6004467  60.8163025
  94.8284830  90.0525511  61.2836951  93.7941415  88.9588286  61.4442918
  92.5741148  88.1916224  75.1914234  91.9439809  88.8732505  75.4249631
  92.4677236  88.0799305  74.2467373  87.8686121  87.8588020  66.1180159
  87.0785175  88.1145548  65.6420269  88.3597368  88.6736358  66.2232199
  89.8200866  88.2232599  63.0763635  89.0232030  88.3351293  63.5947131
  89.5926458  88.5619251  62.2104526  95.6506534  94.7477302  71.0246150
  95.7150966  95.2097710  71.8604322  94.9417458  94.1174667  71.1528460
  86.1523824  88.1118510  68.5495149  86.4031862  88.9965520  68.8152725
  86.6883372  87.9323112  67.7770241  91.8521891  82.4936990  77.5539485
  91.4588837  81.9403188  78.2287130  92.6688031  82.8047568  77.9446003
  88.8183949  93.9320848  61.4653055  89.3308469  94.7264098  61.6158620
  89.4706662  93.2347138  61.3986657  90.6278834  97.0486604  63.5475808
  90.8045462  97.9704569  63.3596792  91.4235667  96.7345023  63.9770188
  94.7689852  83.9094869  75.1459742  95.5099566  84.5102022  75.0664204
  95.0007775  83.1672507  74.5877785  89.9131190  89.0951236  73.4237972
  89.7984705  88.1936493  73.7245071  89.0575708  89.3414933  73.0722788
  95.5477320  94.8315906  73.8930382  96.0805657  94.0704194  73.6629690
  95.0191401  94.5389558  74.6354536  98.7147015  79.9375972  69.4224024
  98.3711284  80.8277613  69.3463134  99.0825978  79.7477629  68.5593609
  86.7832866  92.2609502  62.2412626  87.6208088  92.6706511  62.0246334
  86.9611133  91.3208944  62.2112820  98.6797298  89.9284583  57.9296459
  98.1643921  90.6989187  58.1684846  98.4074606  89.2549719  58.5529520
  96.2644409  84.7734284  62.9881697  95.4086005  84.3841134  62.8087336
  96.6771361  84.8526244  62.1281483  97.7943555  82.3080627  67.3873257
  97.2908351  82.2710762  66.5741062  98.0874162  83.2173370  67.4469914
  94.0386441  82.3919357  66.3939439  94.9039438  82.1962165  66.0345328
  94.1063950  82.1629708  67.3208795  98.4683601  87.8011675  59.7556240
  98.1633737  88.1157824  60.6066383  99.4214043  87.8793095  59.7983573
  96.9130033  93.9601898  61.4049194  96.3851394  93.2254658  61.0922431
  96.4117536  94.7376575  61.1589162  91.6448760  84.6221565  63.7655805
  92.2192512  84.3996746  63.0328998  92.2319743  84.6910259  64.5184407
 100.7028338  90.5095291  64.5720182 101.2160219  91.1425283  65.0741892
 101.3529562  89.9096487  64.2063542  91.9718348  86.6526026  57.7851691
  91.1355660  86.9900712  58.1060965  91.8323117  86.5175005  56.8478828
  93.9471428  81.4962813  62.4930875  93.2935840  81.1811831  61.8687490
  93.9051902  80.8738554  63.2190698  95.0582633  91.7782109  54.4084167
  94.1509695  91.5471362  54.6075316  95.5553665  90.9819728  54.5958149
  97.1809169  87.9844747  66.8178522  96.2631730  88.2059694  66.6600211
  97.5969312  88.0591057  65.9590230  97.9644216  89.3836163  61.9481203
  98.7116035  89.8957560  61.6388325  98.2335806  89.0620215  62.8085596
  96.2370866  91.8794703  58.9308157  95.3282086  91.5953736  59.0280627
  96.2665950  92.2993782  58.0711464 100.4123053  86.4193279  63.9299992
  99.6745810  85.9070665  64.2610235 100.6649827  85.9793661  63.1183269
 100.5134681  79.1969531  64.5241761 100.8193558  78.3366894  64.2367676
 101.2387286  79.7887151  64.3240755  86.8059037  89.6000217  62.9123359
  86.6083437  89.0069578  62.1874426  86.2505701  89.2952428  63.6299298
  94.7855760  89.4923324  65.0317952  94.8404370  88.5397160  64.9560429
  93.9746963  89.6482763  65.5159251  95.9346954  93.4203447  56.2696236
  95.4966384  92.7039306  55.8101873  96.6757395  93.6479562  55.7081327
  92.7248120  88.1100384  62.7908331  91.9115986  88.4094554  63.1973523
  93.2207115  87.7156072  63.5082814  98.3222332  88.5742208  71.6223225
  98.6771720  88.8013681  72.4817691  98.9694463  88.9060585  71.0000480
  92.2162195  85.6818739  68.4069566  92.8561574  85.5407498  67.7092530
  91.3839726  85.3953253  68.0308168  92.9922499  94.9821170  64.5204559
  93.7863098  94.4871490  64.3187134  92.2814191  94.4539033  64.1572264
  89.3005263  89.1264251  60.5964311  88.3702851  89.0648707  60.8134273
  89.3962735  88.6040204  59.8000953  89.2190812  85.6519064  63.1842553
  89.4797629  86.5664397  63.0751713  90.0407984  85.1843507  63.3339166
  90.6915737  87.0656821  70.3541378  91.3638790  86.8574184  69.7054026
  89.8645523  86.8678907  69.9146610  96.5941309  83.6918762  72.3707038
  95.9469224  84.3908712  72.2771515  97.3642324  84.1254906  72.7383287
  96.7705443  91.5299527  70.4303858  97.6997503  91.6810687  70.2572825
  96.3496473  91.6183548  69.5752505  95.5693775  95.5550192  68.2002396
  95.4304861  95.1868976  69.0728334  94.7808371  96.0697831  68.0286354
  97.1198990  94.9331794  65.5891234  96.7848823  94.8932564  66.4848883
  96.6202936  94.2676510  65.1161644  91.0943234  90.3399424  71.1143815
  90.9563032  89.6079663  71.7155354  92.0048158  90.2508324  70.8328002
 100.0558182  92.2787829  55.8628293  99.4387352  91.5534657  55.7661346
  99.5874670  93.0397189  55.5195367  93.7225535  90.0519384  70.6027494
  94.4325153  89.4112576  70.5614113  93.6794843  90.3032279  71.5253675
  92.4354469  87.0384602  72.4223134  91.8991826  86.5875340  73.0744730
  91.8471177  87.1730510  71.6793598  91.8456728  86.4973253  54.9849597
  90.9686194  86.3762054  54.6211844  92.3214481  85.7059331  54.7328486
  83.3658868  91.2850413  65.0791105  84.0529908  90.9712143  64.4912120
  83.2106997  92.1891777  64.8058356  88.1693590  86.1740609  69.5076128
  88.0851779  85.5666279  68.7726538  87.3476296  86.6649628  69.5085625
  98.3417304  84.6594173  64.8746323  98.8386003  83.9064135  64.5547394
  97.5704285  84.6958489  64.3089533  94.9252273  86.8011556  64.6018008
  94.5550060  86.2482596  65.2898914  95.4211365  86.1969689  64.0493008
 102.8119636  89.2583179  62.9834781 103.2780088  90.0911171  62.9095084
 103.2627136  88.7928161  63.6880039 100.7836299  81.6263766  67.0225682
  99.8699379  81.8567993  67.1907889 101.2129400  81.7102210  67.8739715
 100.5542757  89.8153658  69.5225576  99.9014207  90.0629566  68.8678029
 100.9323137  89.0017796  69.1888054  96.6030330  90.5573469  76.0091613
  95.9270967  90.4567599  76.6793989  97.4257964  90.4012683  76.4727611
  88.3509189  96.7945406  68.6304129  88.9362626  96.0489094  68.7632033
  88.1534028  97.1049363  69.5140793  82.9426844  89.3651006  67.3508572
  82.9810944  88.8314597  68.1445690  82.4367137  88.8386212  66.7319549
  90.3217606  84.2115547  70.8471114  90.3858933  85.0730377  70.4348512
  90.2584727  83.5989548  70.1143473  89.7969879  86.2838679  74.4944148
  90.4241918  85.9015756  75.1081673  88.9397798  86.0652881  74.8599841
  86.5735422  88.0915108  60.4262503  86.8688863  87.1825787  60.3729557
  85.6723457  88.0702848  60.1043506  90.1029669  86.1671105  66.4090052
  89.3816254  86.7807073  66.2697525  90.8922924  86.7028870  66.3306698
  92.9055982  83.5025531  72.6830704  93.4290384  83.7487828  73.4457013
  92.6868315  84.3345566  72.2633841  88.3023263  85.7729206  60.5501828
  87.9735969  84.8926585  60.3676934  88.6562634  85.7176875  61.4378218
  91.4165086  86.0602176  60.9177306  91.7561159  86.5888097  60.1955914
  91.8637207  86.3982582  61.6935873  94.1108527  84.4439226  70.3680374
  93.7705348  83.6447039  70.7701054  93.4047533  84.7440937  69.7957207
  94.7624999  81.5288539  68.8207697  95.5851068  81.0549017  68.6986587
  95.0063063  82.3079023  69.3206383  93.4033234  84.5576797  59.1170599
  94.1241596  84.9358050  58.6134316  92.7798538  85.2765674  59.2205577
  97.5464356  85.2621946  60.0528931  97.7627971  86.1446584  59.7517759
  97.0658424  84.8708160  59.3234573  92.2863578  88.2207659  66.6299676
  92.1408158  88.5347963  67.5223957  91.8088781  88.8392560  66.0770574
  94.1459961  85.2110207  66.6780565  94.1321529  84.3151301  66.3412863
  94.8632389  85.2180871  67.3118851  95.9986091  85.6447548  68.7233693
  95.7403869  86.5664618  68.7218023  95.4671132  85.2477982  69.4134157
  86.7609240  90.7613004  69.5687337  86.2162708  91.5372812  69.7007611
  87.6388590  91.1083808  69.4106458  93.5496857  84.0924588  61.9468135
  93.6712768  83.1641234  62.1459023  93.2598899  84.1063274  61.0346451
  96.4188047  81.7779498  65.0834855  96.4409744  81.8418831  64.1286835
  96.8356106  80.9384007  65.2775361  87.5475262  89.8882900  72.4617494
  86.8056998  90.0365535  73.0482124  87.2268006  90.1491166  71.5984243
  87.9931875  97.7748329  64.4927888  88.8189895  97.4752101  64.1126532
  87.6425927  97.0055951  64.9417677  92.9613409  97.1274797  66.5625562
  92.3393418  96.4645502  66.2627790  93.6318276  97.1535929  65.8799210
  86.1940481  95.6934655  65.4516822  85.3572389  95.2656830  65.2700823
  86.1664126  95.8867099  66.3887613  93.0337936  85.6056585  76.1558068
  93.0826092  86.4818708  75.7735838  93.5760450  85.0633978  75.5829711
  92.5226916  95.6778720  60.0384023  92.6715036  96.3614185  59.3850695
  93.3293359  95.6583810  60.5533478 100.9294419  88.9821103  74.0651240
 101.8304282  88.8427568  73.7735238 101.0042394  89.1475558  75.0049418
  95.2637225  86.3587958  72.9104427  94.3940534  86.6521524  72.6387015
  95.4996705  86.9428403  73.6311690  90.2779549  91.7043898  61.0445091
  90.0325590  90.8006228  61.2425302  90.4475463  91.7061049  60.1024569
  97.9676258  82.5767574  70.4269847  98.4858202  83.3128601  70.1016336
  97.6131391  82.8831568  71.2616606  89.5475196  87.4372256  58.5431253
  88.8544441  87.5116611  57.8871289  89.3026948  86.6732599  59.0652770
  98.2188853  78.9967857  65.9470744  98.4990606  78.3291046  66.5731170
  99.0039459  79.1896953  65.4345407 102.0897711  87.4185491  69.6942319
 103.0415134  87.5183589  69.7154543 101.9201161  86.6263760  70.2040403
 100.1112090  84.5041074  69.8801720  99.5162022  84.7846087  69.1848208
  99.8261787  84.9934975  70.6518461  96.4069120  89.5087664  54.8511822
  97.3528224  89.3793872  54.9200240  96.0283365  88.7702326  55.3281251
 102.3791004  81.1743670  64.8138714 102.1815825  80.8658758  65.6982046
 102.9890710  81.9005309  64.9436644  94.5912037  87.4337640  54.7866708
  93.6843492  87.1370753  54.8629421  94.8688018  87.1367458  53.9200994
  85.5089977  88.7544003  65.2365754  85.1892761  87.9009312  64.9440128
  84.9623405  88.9692582  65.9923721  89.2869885  91.4706444  68.9535261
  89.5055894  92.4023552  68.9723294  89.6995658  91.1114419  69.7390064
  96.2074102  81.9774530  60.9410949  95.3974831  81.6321615  61.3166195
  96.8958519  81.6682073  61.5298560  98.1364651  81.0552577  62.5635246
  98.6895689  81.4748030  63.2225269  98.3734737  80.1288325  62.6058202
  94.1597750  87.0439650  78.3438009  94.0594477  87.9934007  78.2750101
  93.9419292  86.7157889  77.4714080  93.3610821  84.2924575  54.9278687
  94.2229985  84.6179474  55.1874504  93.5461165  83.5056071  54.4151753
  85.3778237  92.3746915  67.2058876  84.6841709  91.9600868  66.6928830
  86.1251228  92.4167451  66.6092295 101.5143458  83.1653102  62.0713910
 100.9342127  83.8237906  61.6891962 101.2479391  82.3430446  61.6601327
  99.9647024  82.5658159  64.2735230 100.4646803  82.6774694  63.4649549
 100.6082632  82.2619212  64.9136039  94.0229020  90.4736789  77.1603071
  93.5396102  91.2737149  77.3666960  94.1089959  90.4844734  76.2070515
  87.2914980  92.3065169  65.0824890  87.2685668  92.4052856  64.1306774
  87.6015616  93.1530319  65.4042057  89.9502358  94.3641324  69.1971505
  90.9045611  94.3325266  69.1301436  89.7514881  93.9031947  70.0121731
  90.5401740  92.9342440  71.7642303  91.3594629  93.4286518  71.7877140
  90.8138547  92.0174408  71.7359870 100.2968336  85.3253192  61.1270258
  99.4094191  85.6102843  60.9090453 100.7122325  85.1646955  60.2797535
 103.6482872  85.3499713  64.8424597 104.4243262  85.8396166  65.1149214
 102.9231006  85.7757767  65.2996467  88.3052586  99.9060943  66.2141703
  88.1707054  99.1461344  65.6479701  87.8884649 100.6301843  65.7470492
 100.2709360  90.8407728  61.3420548 100.2144561  91.2976279  60.5028181
 100.8237702  90.0798413  61.1643391 104.0814165  86.6297460  62.1670668
 103.8251100  86.2294096  62.9978875 103.4567034  87.3441254  62.0420807
  85.7936654  87.2680574  72.4634500  86.4395517  86.7579528  72.9521725
  85.5853805  88.0049255  73.0377925  94.3140264  81.5320618  58.2158396
  94.3018934  82.4762458  58.3726667  95.2063686  81.3490764  57.9217857
  98.1292384  78.1263395  62.4704333  97.3624780  77.5721882  62.6161015
  98.5403089  78.1985264  63.3318484  90.1334145  84.4148191  76.5609514
  90.9965606  84.0584996  76.7712838  89.5599556  84.0762086  77.2484918
  37.6096518  -7.1176432  50.0175637  37.0461383  -7.2086495  49.2491925
  37.4948913  -7.9376527  50.4978130  35.1560950  -5.6225240  52.8559858
  35.9482242  -5.9634416  52.4406157  35.3957600  -5.5130265  53.7762011
  43.1896077  -3.4505464  45.3290102  42.5384057  -2.8651384  44.9424116
  43.9840440  -2.9199269  45.3885140  37.1151704  -6.3616327  45.7277236
  37.8882580  -6.9087340  45.5890112  37.4677103  -5.4972078  45.9391698
  38.9536747  -5.0339945  58.9344136  38.6626613  -4.1294314  58.8190802
  39.5893731  -4.9923417  59.6488205  43.9126632  -5.3478529  55.9293929
  43.6127355  -4.4453490  55.8209737  43.5677691  -5.6146346  56.7815082
  38.8947411   1.4165791  48.8964897  38.8171441   2.3673616  48.9753378
  38.2909055   1.0711664  49.5539823  40.9923130  -6.1616151  50.7318766
  41.4561475  -5.8828448  49.9423389  40.7279928  -7.0632706  50.5491857
  37.8847211  -6.6144669  53.6698530  38.4548568  -6.1857401  53.0316014
  38.4755323  -6.8962085  54.3682715  41.4537763  -4.8920163  57.7491457
  41.5182195  -4.4299756  58.5849628  40.7448687  -5.5222799  57.8773766
  41.1685780  -3.2252056  47.6170437  41.0331455  -2.3800520  48.0455285
  41.7095593  -3.0232778  46.8536371  34.6215178  -5.7076618  48.1898362
  35.1339698  -4.9133368  48.3403927  35.2737891  -6.4050327  48.1231963
  36.4310062  -2.5910862  50.2721115  36.6076691  -1.6692897  50.0842099
  37.2266896  -2.9052442  50.7015495  42.7954257  -2.6028489  61.7470779
  42.3518111  -3.3892111  61.4291683  43.4571470  -2.4149339  61.0814670
  37.5541378  -1.0732688  56.2731457  38.1048803  -1.2015624  55.5008451
  36.7152854  -0.7737799  55.9226350  44.8935495  -2.3225690  59.7752180
  44.8753970  -1.5016808  59.2832449  45.8155415  -2.4471614  60.0002321
  41.3508549  -4.8081560  60.6175689  41.8836886  -5.5693272  60.3874997
  40.8222630  -5.1007908  61.3599843  42.7161262  -5.6795568  48.1294501
  42.1882623  -6.4142808  47.8167738  42.2148764  -4.9020891  47.8834469
  43.7681941   0.8482150  44.0526160  43.0943639   1.1513847  44.6611118
  44.1547763   1.6511230  43.7031617  45.7154302  -2.3119676  50.3594449
  46.0077276  -1.7514619  49.6406815  46.2252922  -2.0191115  51.1147608
  40.6787927  -1.5339325  51.4487903  40.6364106  -1.3078479  50.5196435
  41.5950626  -1.7675951  51.5973704  38.7953728  -4.6576296  51.2449865
  39.5894326  -5.1525976  51.0432440  38.0845420  -5.1858433  50.8817571
  43.6148572  -2.2758201  55.5962233  43.6685595  -1.7067264  56.3639949
  42.7463354  -2.1056316  55.2316270  41.3725004  -4.0847274  54.9247702
  41.2336090  -4.4528490  55.7973641  40.5839600  -3.5699635  54.7531660
  41.9673156   1.0161822  46.2673239  42.1424912   0.5449866  47.0818862
  41.2805944   1.6427589  46.4954500  42.9230219  -4.7065671  52.3136540
  42.5880052  -4.7464901  53.2094190  42.4234165  -5.3720956  51.8406950
  47.5143542  -2.6510729  60.2479380  47.4556088  -3.3351509  59.5809963
  47.9163061  -1.9091739  59.7960006  36.5334241   4.1651185  53.0413099
  36.7730839   4.7969709  53.7192118  35.6903438   3.8139225  53.3278458
  41.0462103  -0.0269692  55.4454603  40.9732274   0.7785279  55.9573908
  40.6039496   0.1722273  54.6202624  40.8351883  -0.7897922  48.9557425
  40.0519405  -0.2476242  49.0495649  41.5344628  -0.2723943  49.3551666
  43.5060787  -0.1282858  57.6012762  44.2188759   0.5064606  57.5288663
  43.0150815  -0.0318992  56.7852764  38.5572700  -2.3788415  58.4218333
  39.2582160  -1.7451932  58.5747727  38.0867815  -2.0373683  57.6613972
  46.6827096  -4.0370465  46.7066240  46.9586940  -4.1513871  47.6160114
  45.8131595  -4.4352980  46.6678413  43.3181160   0.2115886  50.3499053
  43.5003554  -0.6062458  50.8126806  44.1414146   0.4283578  49.9123943
  43.6523325  -0.8615929  47.6114102  44.1811092  -1.3723475  46.9984264
  43.9151545  -1.1773399  48.4759635  34.1540418  -2.8452060  55.3549435
  34.7393855  -3.5908372  55.4877339  33.9565257  -2.5348103  56.2386099
  37.0079073   0.1899187  50.3711878  36.3389449   0.6745315  49.8875918
  36.8691943   0.4368408  51.2855256  41.1484342   2.2242931  56.9694536
  41.7002650   2.3874552  57.7343621  41.4890535   2.8147369  56.2974561
  45.9995216  -2.9495812  62.8243190  46.5435120  -2.3365853  62.3298145
  45.4182061  -2.3916233  63.3410203  44.2852729   0.1724907  53.9558218
  44.1603869  -0.6285354  53.4469164  44.9431820   0.6671100  53.4672188
  46.3487638  -2.0266073  55.5837768  45.4017973  -2.1460722  55.5116095
  46.6970411  -2.9143575  55.6664030  43.3534071  -2.2313357  51.7842120
  43.2059033  -3.1596650  51.9649691  44.1787564  -2.2093266  51.2999196
  46.9568193  -1.4084798  52.8706993  47.8814740  -1.6141937  52.7331444
  46.7883496  -1.6568397  53.7796335  46.7463509  -0.8899131  48.2269085
  46.9200386  -1.4552709  47.4742937  47.2392400  -0.0898236  48.0448575
  47.7338681  -1.5732367  45.3265983  48.4289586  -0.9525674  45.5453298
  48.0761832  -2.4237015  45.6018361  41.2950153  -0.2098587  58.9843190
  41.6037280  -0.4549441  59.8565890  42.0925635  -0.0051949  58.4962061
  41.3170765   1.9439322  51.2148567  40.8775756   1.4515701  51.9081424
  42.0678882   1.4012290  50.9740642  33.7963104  -1.8649137  51.2173195
  34.6221124  -2.1645365  50.8371839  33.4457156  -2.6341514  51.6662984
  38.7644637  -2.5122669  53.2870869  38.1424647  -3.1751964  52.9873096
  39.4349504  -2.4861537  52.6044516  31.9971709  -3.9462810  52.1762129
  31.1603618  -4.3740636  51.9946130  31.9695355  -3.7530367  53.1132920
  49.3224011  -3.4899757  62.1604512  48.5319554  -3.5075619  61.6209011
  49.0857365  -2.9511464  62.9153548  38.3258144  -3.9618745  46.7629329
  38.4746265  -3.2783281  46.1096002  39.1324588  -3.9813655  47.2778785
  36.0810777  -7.9353568  47.7690398  35.8356819  -8.8391238  47.9670608
  36.2506692  -7.9336417  46.8269876  41.8253550  -1.4670615  44.2341077
  41.2527517  -0.8480428  43.7811548  42.3986344  -0.9171253  44.7680998
  45.0450810  -1.1833465  45.3649659  45.9781483  -1.2487903  45.5682534
  44.9574022  -0.3477198  44.9064191  47.6738826  -1.8667594  42.3253606
  47.5952458  -2.2007731  43.2189364  48.4948493  -1.3745827  42.3245079
  35.0901113  -8.1691021  55.6780567  35.3087123  -7.2373914  55.6968601
  35.5026887  -8.5283047  56.4635371  33.0946208  -7.3332297  51.8070197
  33.0716897  -7.2344610  50.8552080  33.4046845  -6.4867146  52.1287363
  35.7533586  -5.2756142  55.9216812  36.7076840  -5.3072200  55.8546743
  35.5546110  -5.7365518  56.7367037  36.3432968  -6.7055026  58.4887609
  37.1625857  -6.2110947  58.5122446  36.6169776  -7.6223058  58.4605177
  34.1083815   0.2663477  52.9387009  33.9738283  -0.4936122  52.3725007
  33.6915877   0.9904377  52.4715798  45.2442778  -4.5499599  41.9463585
  45.9478628  -4.3449597  42.5621240  44.5205427  -3.9822837  42.2112668
  37.2652941   1.1632794  53.1505452  37.1485325   2.1078227  53.0484142
  36.4445387   0.8606356  53.5391251  47.1529476  -4.1117070  43.9962045
  47.9875079  -4.5435871  43.8139520  46.9913818  -4.2835056  44.9238939
  44.1221275  -5.3036045  64.6871947  44.9912435  -5.1295392  64.3258582
  43.6428026  -4.4841628  64.5647676  38.2907455   1.8161056  56.3661380
  39.1934702   1.8484667  56.6827875  38.0644825   0.8861507  56.3807716
  40.0461057   0.5692043  53.0271459  39.0956688   0.5693904  52.9135831
  40.3493543  -0.1775223  52.5107494  55.7813751   6.4052581  54.0917222
  56.4192161   6.2859329  53.3880562  55.6634594   7.3533425  54.1505174
  52.5903457   6.3580009  54.0278746  52.2521968   6.2421074  53.1399281
  53.4593225   5.9571174  54.0079752  48.4490273   8.2115486  50.0175637
  47.8855138   8.1205423  49.2491925  48.3342668   7.3915390  50.4978130
  53.0723240   7.5114861  59.9864952  53.0611881   7.1167659  59.1145455
  53.2343879   6.7780934  60.5798723  45.9954705   9.7066677  52.8559858
  46.7875996   9.3657502  52.4406157  46.2351355   9.8161652  53.7762011
  54.0289831  11.8786453  45.3290102  53.3777811  12.4640534  44.9424116
  54.8234194  12.4092648  45.3885140  47.9545458   8.9675591  45.7277236
  48.7276334   8.4204578  45.5890112  48.3070857   9.8319840  45.9391698
  49.7930501  10.2951973  58.9344136  49.5020367  11.1997604  58.8190802
  50.4287485  10.3368501  59.6488205  50.7186708   7.6728821  55.5245495
  51.3150280   7.4484844  54.8102458  50.7761679   6.9313567  56.1270943
  50.2911736   5.1268257  43.3595686  50.5437257   4.6049778  42.5979149
  49.3536295   4.9634402  43.4622370  55.3355019   4.1304035  51.1670430
  56.1218108   3.7123458  50.8160847  55.5993723   5.0350127  51.3352078
  55.5065096   9.5676885  45.8659086  54.8710929   9.6411512  46.5779991
  55.1762503  10.1570484  45.1878166  60.7363446   4.0679268  52.0703408
  61.4688618   3.4978485  52.3041238  59.9802802   3.6800869  52.5109914
  50.0108025   7.0296363  45.5620061  49.8944283   6.3541266  46.2301146
  50.1210285   6.5428737  44.7452214  52.3539566   6.4906510  49.2666751
  51.9897773   5.9637131  49.9779672  53.2106682   6.1004979  49.0933236
  51.9945053   1.5196410  44.2628099  52.1619455   2.3876646  44.6298570
  51.8042222   1.6823691  43.3389388  54.7520386   9.9813388  55.9293929
  54.4521109  10.8838427  55.8209737  54.4071446   9.7145572  56.7815082
  48.2032868   6.4327185  51.9630634  47.2783364   6.3003399  52.1708326
  48.4517281   7.2121405  52.4600576  58.1517530   2.4995929  53.6091367
  57.2434407   2.4311337  53.3150128  58.1005126   2.9767874  54.4373192
  51.9734274   3.9754067  45.2474766  51.8533899   4.4211118  46.0860246
  51.2786862   4.3239385  44.6888304  45.5641679   6.0760459  52.7974423
  45.6934060   6.3294938  53.7113835  44.8839130   6.6688167  52.4779078
  49.7341166  16.7457709  48.8964897  49.6565196  17.6965534  48.9753378
  49.1302809  16.4003581  49.5539823  52.2258396   3.9185574  61.5526264
  51.4491730   4.4779494  61.5429129  52.8648959   4.4042357  62.0741134
  60.0179176   0.7012367  55.3869241  59.3753557   0.9944900  54.7409035
  59.5134105   0.5865287  56.1922437  57.6719340   4.4475540  46.0755100
  58.5837196   4.6802927  45.9002797  57.1628987   5.0312584  45.5130179
  50.4804768   6.7271028  61.1144231  51.2219452   7.2656072  60.8379055
  49.7741753   7.3537316  61.2715783  55.9560108   8.8700168  59.7116392
  56.3643464   8.4282579  58.9671025  55.2337369   8.2952796  59.9650585
  52.3091178   3.8072775  57.0849949  53.1552373   4.2312188  57.2284598
  52.2489815   3.1506399  57.7788513  56.2788922   9.4301359  53.4668681
  55.6497785   9.5947073  52.7644749  55.8914584   9.8442968  54.2379645
  60.1578154  10.3655796  50.8213045  59.4729192  10.7454698  50.2710078
  60.2422003  10.9751123  51.5544993  55.4590623   1.4677143  58.7431123
  55.2151555   2.2219204  58.2065399  55.7350554   1.8462491  59.5778370
  57.4129086   8.0115756  57.4208389  57.6245981   8.6547515  56.7442770
  57.3658834   7.1778072  56.9530319  55.0155315   0.6233576  54.3244961
  54.1539794   0.9214830  54.6161698  55.0417749   0.8403975  53.3925993
  51.8316884   9.1675767  50.7318766  52.2955230   9.4463470  49.9423389
  51.5673682   8.2659211  50.5491857  48.7240965   8.7147248  53.6698530
  49.2942322   9.1434517  53.0316014  49.3149077   8.4329833  54.3682715
  50.7685770   5.2898919  47.5408332  51.4709814   5.7419963  48.0082258
  50.4366399   4.6482738  48.1688225  49.2166132   3.8810676  61.9159541
  48.5864792   4.5626957  62.1494938  49.1102220   3.7693757  60.9712679
  44.5111104   3.5482472  52.8425465  43.7210158   3.8040000  52.3665576
  45.0022352   4.3630810  52.9477506  58.5274914  10.8887711  55.5930746
  59.3492357  10.4867898  55.3113428  58.5237317  10.7855945  56.5446862
  46.4625850   3.9127051  49.8008942  45.6657013   4.0245745  50.3192438
  46.2351442   4.2513703  48.9349832  52.2931517  10.4371754  57.7491457
  52.3575950  10.8992161  58.5849628  51.5842441   9.8069119  57.8773766
  42.7948807   3.8012962  55.2740456  43.0456846   4.6859972  55.5398032
  43.3308356   3.6217564  54.5015548  66.6180907   7.2326459  51.9415717
  65.8644615   6.6633857  51.7859722  66.7528448   7.1989124  52.8886352
  52.0079535  12.1039862  47.6170437  51.8725210  12.9491397  48.0455285
  52.5489347  12.3059139  46.8536371  48.4946874  -1.8168558  64.2784792
  48.1013820  -2.3702360  64.9532436  49.3113015  -1.5057980  64.6691310
  45.4608932   9.6215300  48.1898362  45.9733453  10.4158550  48.3403927
  46.1131645   8.9241590  48.1231963  47.2703817  12.7381056  50.2721115
  47.4470445  13.6599021  50.0842099  48.0660650  12.4239475  50.7015495
  51.4114835  -0.4010679  61.8705049  52.1524549   0.1996474  61.7909511
  51.6432758  -1.1433042  61.3123091  46.5556173   4.7845688  60.1483278
  46.4409689   3.8830945  60.4490377  45.7000691   5.0309385  59.7968095
  53.6348011  12.7263428  61.7470779  53.1911865  11.9399807  61.4291683
  54.2965225  12.9142579  61.0814670  48.3935132  14.2559230  56.2731457
  48.9442557  14.1276293  55.5008451  47.5546608  14.5554119  55.9226350
  55.7329249  13.0066228  59.7752180  55.7147725  13.8275109  59.2832449
  56.6549169  12.8820303  60.0002321  52.1902303  10.5210358  60.6175689
  52.7230640   9.7598646  60.3874997  51.6616385  10.2284009  61.3599843
  43.4257849   7.9503954  48.9657932  44.2633071   8.3600962  48.7491640
  43.6036117   7.0103396  48.9358126  55.3222281   5.6179035  44.6541765
  54.8068905   6.3883639  44.8930153  55.0499590   4.9444171  45.2774827
  52.9069392   0.4628735  49.7127004  52.0510988   0.0735586  49.5332642
  53.3196344   0.5420696  48.8526789  54.4368539  -2.0024921  54.1118564
  53.9333334  -2.0394786  53.2986369  54.7299146  -1.0932179  54.1715220
  50.6811425  -1.9186192  53.1184745  51.5464421  -2.1143383  52.7590635
  50.7488934  -2.1475840  54.0454102  60.2956555   8.3711389  46.5894939
  59.5185998   8.0322549  46.1450101  60.9748036   8.3764013  45.9149904
  55.1108584   3.4906127  46.4801547  54.8058720   3.8052276  47.3311690
  56.0639026   3.5687547  46.5228880  53.5555016   9.6496350  48.1294501
  53.0276378   8.9149110  47.8167738  53.0542519  10.4271026  47.8834469
  58.5347862   7.8445371  53.2461547  57.8771537   8.5344632  53.3341675
  59.3388261   8.2341803  53.5895533  48.2873744   0.3116016  50.4901112
  48.8617496   0.0891198  49.7574305  48.8744726   0.3804711  51.2429713
  57.3453321   6.1989743  51.2965489  57.8585203   6.8319735  51.7987198
  57.9954545   5.5990939  50.9308849  48.6143331   2.3420477  44.5096997
  47.7780643   2.6795164  44.8306272  48.4748100   2.2069457  43.5724134
  50.5896411  -2.8142735  49.2176182  49.9360824  -3.1293718  48.5932796
  50.5476886  -3.4366994  49.9436004  51.7007616   7.4676560  41.1329474
  50.7934678   7.2365814  41.3320623  52.1978648   6.6714180  41.3203455
  54.6075695  16.1774068  44.0526160  53.9337394  16.4805764  44.6611118
  54.9941517  16.9803148  43.7031617  53.8234152   3.6739199  53.5423829
  52.9056713   3.8954146  53.3845517  54.2394295   3.7485509  52.6835536
  54.6069200   5.0730615  48.6726509  55.3541019   5.5852012  48.3633631
  54.8760789   4.7514667  49.5330903  52.8795850   7.5689155  45.6553464
  51.9707069   7.2848188  45.7525933  52.9090934   7.9888234  44.7956771
  58.1115117  11.1795745  49.4244631  57.6577444  10.3386655  49.4809822
  57.4809084  11.8157143  49.7619411  57.0548037   2.1087731  50.6545299
  56.3170794   1.5965117  50.9855541  57.3074810   1.6688112  49.8428576
  56.5548056  13.0172241  50.3594449  56.8471031  13.5777299  49.6406815
  57.0646677  13.3100802  51.1147608  43.4484020   5.2894669  49.6368666
  43.2508420   4.6964030  48.9119732  42.8930684   4.9846880  50.3544605
  51.4280744   5.1817776  51.7563259  51.4829354   4.2291612  51.6805736
  50.6171946   5.3377215  52.2404557  52.5771938   9.1097899  42.9941542
  52.1391367   8.3933758  42.5347180  53.3182378   9.3374014  42.4326634
  49.3673104   3.7994836  49.5153638  48.5540969   4.0989006  49.9218830
  49.8632098   3.4050524  50.2328120  51.5181682  13.7952593  51.4487903
  51.4757860  14.0213439  50.5196435  52.4344380  13.5615967  51.5973704
  54.9647315   4.2636660  58.3468532  55.3196703   4.4908133  59.2062998
  55.6119447   4.5955037  57.7245787  60.6945052   7.3855096  49.0517861
  60.5562951   7.5756692  48.1239050  60.3381271   8.1474479  49.5085912
  48.8587178   1.3713191  55.1314873  49.4986558   1.2301950  54.4337836
  48.0264709   1.0847705  54.7553475  60.7214432   9.4531623  54.0629132
  61.1550939   9.3606912  54.9112186  61.4346013   9.4289123  53.4249148
  49.6347482  10.6715622  51.2449865  50.4288081  10.1765942  51.0432440
  48.9239175  10.1433485  50.8817571  54.4542327  13.0533717  55.5962233
  54.5079349  13.6224653  56.3639949  53.5857108  13.2235602  55.2316270
  45.9430246   4.8158703  47.3209618  45.0127834   4.7543159  47.5379580
  46.0387718   4.2934656  46.5246259  45.8615795   1.3413516  49.9087860
  46.1222612   2.2558849  49.7997020  46.6832967   0.8737959  50.0584472
  47.3340720   2.7551273  57.0786684  48.0063774   2.5468635  56.4299333
  46.5070507   2.5573359  56.6391916  61.5829982   9.4955324  56.5962018
  61.7765872  10.4001134  56.8421293  61.4830600   9.0362743  57.4300603
  53.2366292  -0.6186786  59.0952345  52.5894207   0.0803164  59.0016821
  54.0067308  -0.1850642  59.4628593  56.6445090   9.6462066  62.1702898
  56.4930597   9.4172618  61.2532982  56.6349770  10.6032668  62.1834243
  53.4130427   7.2193979  57.1549165  54.3422487   7.3705139  56.9818132
  52.9921457   7.3078000  56.2997811  52.2118758  11.2444644  54.9247702
  52.0729844  10.8763428  55.7973641  51.4233355  11.7592283  54.7531660
  52.8066910  16.3453740  46.2673239  52.9818666  15.8741783  47.0818862
  52.1199698  16.9719506  46.4954500  53.7623974  10.6226246  52.3136540
  53.4273806  10.5827016  53.2094190  53.2627919   9.9570962  51.8406950
  47.7368217   6.0293876  57.8389121  47.5988015   5.2974115  58.4400660
  48.6473141   5.9402776  57.5573309  56.6983165   7.9682281  42.5873600
  56.0812336   7.2429109  42.4906653  56.2299654   8.7291641  42.2440674
  50.3650518   5.7413836  57.3272801  51.0750137   5.1007028  57.2859419
  50.3219826   5.9926730  58.2498982  58.3537297  12.6781189  60.2479380
  58.2949843  11.9940409  59.5809963  58.7556815  13.4200179  59.7960006
  49.0779452   2.7279053  59.1468440  48.5416809   2.2769792  59.7990037
  48.4896161   2.8624962  58.4038905  47.3727996  19.4943103  53.0413099
  47.6124594  20.1261627  53.7192118  46.5297192  19.1431143  53.3278458
  48.4881711   2.1867705  41.7094904  47.6111177   2.0656506  41.3457151
  48.9639464   1.3953783  41.4573793  58.3554704  10.6420773  58.4793360
  57.4681483  10.3046695  58.6019759  58.9253255   9.9103804  58.7162125
  40.0083851   6.9744865  51.8036411  40.6954891   6.6606595  51.2157427
  39.8531980   7.8786229  51.5303663  44.8118573   1.8635061  56.2321435
  44.7276762   1.2560731  55.4971845  43.9901280   2.3544079  56.2330931
  51.8855857  15.3022225  55.4454603  51.8126029  16.1077197  55.9573908
  51.4433251  15.5014191  54.6202624  51.6745637  14.5393995  48.9557425
  50.8913159  15.0815675  49.0495649  52.3738382  15.0567975  49.3551666
  54.9842287   0.3488625  51.5991630  55.4810987  -0.4041413  51.2792700
  54.2129269   0.3852941  51.0334839  62.8372045   6.0528990  53.2409922
  62.8261921   6.9353706  52.8703855  61.9689424   5.7000541  53.0464459
  54.3454541  15.2009059  57.6012762  55.0582513  15.8356524  57.5288663
  53.8544570  15.2972925  56.7852764  56.0672068   9.1060312  49.1730053
  55.1328347   9.2261774  49.0034758  56.2448736   8.2032779  48.9090063
  51.5677256   2.4906008  51.3263315  51.1975043   1.9377048  52.0144220
  52.0636348   1.8864141  50.7738315  59.4544619   4.9477631  49.7080088
  59.9205071   5.7805623  49.6340390  59.9052120   4.4822613  50.4125346
  49.3966455  12.9503503  58.4218333  50.0975914  13.5839986  58.5747727
  48.9261570  13.2918234  57.6613972  57.5220850  11.2921452  46.7066240
  57.7980694  11.1778047  47.6160114  56.6525349  10.8938937  46.6678413
  57.1967741   5.5048110  56.2470883  56.5439191   5.7524018  55.5923336
  57.5748120   4.6912248  55.9133360  54.1574914  15.5407803  50.3499053
  54.3397309  14.7229459  50.8126806  54.9807900  15.7575496  49.9123943
  54.4917080  14.4675988  47.6114102  55.0204846  13.9568443  46.9984264
  54.7545299  14.1518519  48.4759635  53.2455314   6.2467921  62.7336920
  52.5695951   6.1462051  63.4039295  54.0682947   6.0907135  63.1972917
  44.9934173  12.4839858  55.3549435  45.5787609  11.7383546  55.4877339
  44.7959011  12.7943814  56.2386099  47.8472828  15.5191105  50.3711878
  47.1783203  16.0037233  49.8875918  47.7085698  15.7660326  51.2855256
  39.5851827   5.0545458  54.0753878  39.6235927   4.5209049  54.8690996
  39.0792120   4.5280663  53.4564856  51.9878096  17.5534849  56.9694536
  52.5396404  17.7166470  57.7343621  52.3284290  18.1439286  56.2974561
  46.9642590  -0.0990002  57.5716421  47.0283916   0.7624829  57.1593818
  46.9009710  -0.7116000  56.8388779  46.4394862   1.9733131  61.2189455
  47.0666901   1.5910208  61.8326979  45.5822781   1.7547333  61.5845147
  56.8388971  12.3796106  62.8243190  57.3828875  12.9926064  62.3298145
  56.2575816  12.9375685  63.3410203  43.2160405   3.7809560  47.1507810
  43.5113846   2.8720239  47.0974863  42.3148441   3.7597300  46.8288812
  55.1246484  15.5016824  53.9558218  54.9997623  14.7006564  53.4469164
  55.7825575  15.9963018  53.4672188  46.7454652   1.8565557  53.1335358
  46.0241238   2.4701524  52.9942832  47.5347908   2.3923322  53.0552004
  57.1881392  13.3025844  55.5837768  56.2411728  13.1831195  55.5116095
  57.5364165  12.4148342  55.6664030  49.5480965  -0.8080017  59.4076010
  50.0715367  -0.5617720  60.1702319  49.3293299   0.0240018  58.9879147
  44.9448247   1.4623658  47.2747135  44.6160953   0.5821037  47.0922241
  45.2987617   1.4071326  48.1623524  54.1927825  13.0978560  51.7842120
  54.0452788  12.1695268  51.9649691  55.0181319  13.1198651  51.2999196
  48.0590070   1.7496628  47.6422613  48.3986142   2.2782549  46.9201221
  48.5062190   2.0877034  48.4181179  57.7961947  13.9207119  52.8706993
  58.7208495  13.7149981  52.7331444  57.6277251  13.6723520  53.7796335
  50.7533510   0.1333678  57.0925681  50.4130331  -0.6658509  57.4946361
  50.0472517   0.4335389  56.5202514  50.0458217   0.2471249  45.8415905
  50.7666579   0.6252502  45.3379622  49.4223521   0.9660126  45.9450883
  54.1889340   0.9516398  46.7774238  54.4052954   1.8341036  46.4763066
  53.7083407   0.5602612  46.0479880  48.9288561   3.9102111  53.3544982
  48.7833142   4.2242414  54.2469264  48.4513765   4.5287012  52.8015881
  50.7884944   0.9004659  53.4025872  50.7746513   0.0045753  53.0658170
  51.5057372   0.9075323  54.0364158  52.6411075   1.3342000  55.4478999
  52.3828852   2.2559070  55.4463330  52.1096115   0.9372434  56.1379463
  57.5857263  14.4392787  48.2269085  57.7594141  13.8739209  47.4742937
  58.0786155  15.2393682  48.0448575  43.4034223   6.4507456  56.2932643
  42.8587691   7.2267264  56.4252918  44.2813573   6.7978260  56.1351765
  50.1921840  -0.2180960  48.6713442  50.3137751  -1.1464314  48.8704330
  49.9023882  -0.2042274  47.7591757  63.4396655   7.2029210  49.8459384
  63.8827801   6.4536535  49.4478508  62.5623165   7.1939346  49.4633116
  58.5732436  13.7559551  45.3265983  59.2683341  14.3766244  45.5453298
  58.9155586  12.9054902  45.6018361  44.1900245   5.5777352  59.1862800
  43.4481981   5.7259987  59.7727431  43.8692989   5.8385618  58.3229550
  60.4723859  11.2059257  46.8553314  60.9975183  11.5446529  46.1302634
  60.3846212  10.2706272  46.6716448  52.1343908  15.1193330  58.9843190
  52.4431034  14.8742477  59.8565890  52.9319390  15.3239969  58.4962061
  52.1564520  17.2731240  51.2148567  51.7169510  16.7807619  51.9081424
  52.9072637  16.7304208  50.9740642  44.6356859  13.4642781  51.2173195
  45.4614879  13.1646553  50.8371839  44.2850911  12.6950403  51.6662984
  49.6038392  12.8169249  53.2870869  48.9818401  12.1539954  52.9873096
  50.2743259  12.8430381  52.6044516  42.8365464  11.3829107  52.1762129
  41.9997372  10.9551282  51.9946130  42.8089109  11.5761551  53.1132920
  49.6762919   1.2951037  62.8803375  49.7251075   2.1713160  62.4981144
  50.2185434   0.7528430  62.3075018  60.1617765  11.8392160  62.1604512
  59.3713309  11.8216299  61.6209011  59.9251120  12.3780454  62.9153548
  60.2815640   8.6884627  59.4737240  60.3313645   8.5234634  60.4152763
  60.1729563   7.8211886  59.0835121  49.1651899  11.3673172  46.7629329
  49.3140019  12.0508637  46.1096002  49.9718342  11.3478262  47.2778785
  57.5719403   4.6715555  60.7896547  58.4729265   4.5322019  60.4980545
  57.6467377   4.8370009  61.7294724  51.9062208   2.0482409  59.6349733
  51.0365517   2.3415975  59.3632322  52.1421688   2.6322854  60.3556997
  61.7833837  11.1081568  59.7179262  61.4918645  11.4711549  60.5542723
  61.1705968  10.3948576  59.5392594  62.9829519   8.6734448  52.2381832
  63.8176411   9.1124252  52.4019392  63.1188648   8.1973101  51.4190078
  60.0321025   6.2314183  58.1859320  60.5075147   6.4241829  57.3778171
  59.1086591   6.2873369  57.9402703  46.9204532   7.3938350  47.7690398
  46.6750574   6.4900680  47.9670608  47.0900446   7.3955500  46.8269876
  54.6101242  -1.7337974  57.1515154  55.1283186  -0.9976947  56.8261642
  54.2556374  -1.4273980  57.9861913  46.1900179   3.1266708  45.2676559
  45.4969424   3.2011063  44.6116595  45.9451931   2.3627051  45.7898076
  52.6647304  13.8621303  44.2341077  52.0921271  14.4811490  43.7811548
  53.2380098  14.4120664  44.7680998  58.7322694   3.1079943  56.4187625
  59.6840117   3.2078041  56.4399849  58.5626145   2.3158211  56.9285710
  56.7537074   0.1935526  56.6047026  56.1587006   0.4740539  55.9093515
  56.4686770   0.6829427  57.3763767  55.8844564  14.1458453  45.3649659
  56.8175237  14.0804015  45.5682534  55.7967777  14.9814720  44.9064191
  58.5132581  13.4624323  42.3253606  58.4346212  13.1284187  43.2189364
  59.3342248  13.9546091  42.3245079  61.2110772   6.3286063  55.5329925
  61.1787092   5.3902063  55.7189609  61.8211396   6.4070099  54.7995750
  53.0494103   5.1982116  41.5757129  53.9953208   5.0688324  41.6445547
  52.6708348   4.4596777  42.0526557  61.3605260   3.1197106  55.5788208
  60.8444309   2.3355563  55.3918137  62.2445209   2.7915823  55.7434728
  67.0287322   7.3902069  54.6735962  67.7590710   7.1287358  55.2343665
  66.4194267   6.6530791  54.7138030  65.1102619   5.5309932  55.2710413
  64.3835783   5.3965897  54.6626905  64.6949906   5.8386761  56.0767131
  52.9332795   9.2499862  63.0357786  53.8535805   9.4278461  63.2297833
  52.8982378   8.3055907  62.8837485  51.2337020   3.1232092  41.5112014
  50.3268475   2.8265205  41.5874728  51.5113001   2.8261910  40.6446301
  42.1514960   4.4438455  51.9611061  41.8317745   3.5903764  51.6685435
  41.6048389   4.6587033  52.7169028  45.9294868   7.1600896  55.6780567
  46.1480878   8.0918004  55.6968601  46.3420642   6.8008871  56.4635371
  50.8022733   2.7334102  65.0683316  50.7019460   3.6828459  64.9995407
  50.5844275   2.4052341  64.1959386  50.0035805  -0.0180973  41.6523993
  50.8654969   0.3073925  41.9119811  50.1886149  -0.8049477  41.1397059
  42.0203220   8.0641367  53.9304182  41.3266692   7.6495320  53.4174137
  42.7676211   8.1061903  53.3337601  50.6654003   6.1631241  63.8848378
  50.1821085   6.9631601  64.0912267  50.7514942   6.1739186  62.9315822
  43.9339963   7.9959621  51.8070197  43.9110651   8.0947308  50.8552080
  44.2440599   8.8424771  52.1287363  46.5927341  10.0535776  55.9216812
  47.5470594  10.0219718  55.8546743  46.3939864   9.5926399  56.7367037
  47.1826723   8.6236892  58.4887609  48.0019612   9.1180970  58.5122446
  47.4563531   7.7068860  58.4605177  56.9393319   1.0147644  47.8515565
  56.0519174   1.2997295  47.6335759  57.3547308   0.8541407  47.0042842
  60.2907855   1.0394165  51.5669904  61.0668245   1.5290617  51.8394521
  59.5655989   1.4652219  52.0241773  62.7280414   1.7521784  52.6243845
  63.3224905   1.5117520  51.9137153  62.8006998   1.0328915  53.2517381
  44.9477570  15.5955395  52.9387009  44.8132038  14.8355796  52.3725007
  44.5309632  16.3196295  52.4715798  56.0836533  10.7792319  41.9463585
  56.7872383  10.9842321  42.5621240  55.3599181  11.3469081  42.2112668
  56.9134343   6.5302180  48.0665855  56.8569544   6.9870731  47.2273487
  57.4662685   5.7692864  47.8888698  60.7239149   2.3191912  48.8915974
  60.4676083   1.9188547  49.7224182  60.0992017   3.0335706  48.7666114
  65.0351487   5.0587985  51.3987266  64.4751045   5.1281174  52.1718828
  64.4294990   4.8828970  50.6786762  48.1046695  16.4924712  53.1505452
  47.9879080  17.4370145  53.0484142  47.2839142  16.1898274  53.5391251
  57.9923230  11.2174848  43.9962045  58.8268834  10.7856046  43.8139520
  57.8307573  11.0456862  44.9238939  57.6469122   7.7206961  45.3618384
  57.5917926   7.5551233  44.4206828  57.0215177   8.4282994  45.5180574
  42.4361637   2.9575026  59.1879806  43.0820501   2.4473979  59.6767031
  42.2278788   3.6943707  59.7623232  54.9615029  10.0255873  64.6871947
  55.8306189  10.1996525  64.3258582  54.4821781  10.8450290  64.5647676
  50.9565248  -2.7784930  44.9403702  50.9443917  -1.8343090  45.0971973
  51.8488670  -2.9614784  44.6463164  49.1301210  17.1452974  56.3661380
  50.0328456  17.1776584  56.6827875  48.9038580  16.2153425  56.3807716
  50.8854812  15.8983961  53.0271459  49.9350443  15.8985822  52.9135831
  51.1887298  15.1516695  52.5107494  46.7759128   0.1042643  63.2854821
  47.6390590  -0.2520553  63.4958145  46.2024539  -0.2343463  63.9730225
  66.6207505  21.7344499  54.0917222  67.2585915  21.6151246  53.3880562
  66.5028348  22.6825343  54.1505174  63.4297211  21.6871927  54.0278746
  63.0915723  21.5712992  53.1399281  64.2986980  21.2863092  54.0079752
  59.2884027  23.5407403  50.0175637  58.7248892  23.4497340  49.2491925
  59.1736422  22.7207308  50.4978130  63.9116994  22.8406779  59.9864952
  63.9005635  22.4459577  59.1145455  64.0737634  22.1072851  60.5798723
  56.8348459  25.0358595  52.8559858  57.6269751  24.6949420  52.4406157
  57.0745109  25.1453570  53.7762011  64.8683586  27.2078371  45.3290102
  64.2171566  27.7932452  44.9424116  65.6627949  27.7384566  45.3885140
  58.7939213  24.2967508  45.7277236  59.5670089  23.7496495  45.5890112
  59.1464612  25.1611758  45.9391698  60.6324256  25.6243891  58.9344136
  60.3414121  26.5289521  58.8190802  61.2681240  25.6660418  59.6488205
  61.5580462  23.0020739  55.5245495  62.1544035  22.7776762  54.8102458
  61.6155434  22.2605485  56.1270943  61.1305491  20.4560174  43.3595686
  61.3831011  19.9341696  42.5979149  60.1930050  20.2926320  43.4622370
  66.1748774  19.4595953  51.1670430  66.9611863  19.0415376  50.8160847
  66.4387478  20.3642045  51.3352078  66.3458851  24.8968803  45.8659086
  65.7104684  24.9703430  46.5779991  66.0156257  25.4862402  45.1878166
  71.5757201  19.3971186  52.0703408  72.3082373  18.8270403  52.3041238
  70.8196556  19.0092786  52.5109914  60.8501780  22.3588280  45.5620061
  60.7338038  21.6833184  46.2301146  60.9604039  21.8720654  44.7452214
  63.1933320  21.8198427  49.2666751  62.8291528  21.2929048  49.9779672
  64.0500436  21.4296897  49.0933236  69.0982621  13.1092760  56.5298017
  68.7665946  13.9788171  56.3059232  68.5028234  12.7929044  57.2092047
  62.8338807  16.8488327  44.2628099  63.0013210  17.7168564  44.6298570
  62.6435976  17.0115609  43.3389388  65.5914141  25.3105306  55.9293929
  65.2914864  26.2130345  55.8209737  65.2465200  25.0437489  56.7815082
  59.0426622  21.7619103  51.9630634  58.1177119  21.6295317  52.1708326
  59.2911035  22.5413322  52.4600576  68.9911284  17.8287846  53.6091367
  68.0828162  17.7603255  53.3150128  68.9398880  18.3059791  54.4373192
  62.8128028  19.3045985  45.2474766  62.6927653  19.7503035  46.0860246
  62.1180617  19.6531302  44.6888304  56.4035433  21.4052376  52.7974423
  56.5327814  21.6586855  53.7113835  55.7232884  21.9980084  52.4779078
  60.5734920  32.0749626  48.8964897  60.4958950  33.0257452  48.9753378
  59.9696564  31.7295499  49.5539823  63.0652150  19.2477492  61.5526264
  62.2885484  19.8071412  61.5429129  63.7042713  19.7334275  62.0741134
  70.8572931  16.0304285  55.3869241  70.2147311  16.3236818  54.7409035
  70.3527859  15.9157205  56.1922437  68.5113094  19.7767458  46.0755100
  69.4230951  20.0094845  45.9002797  68.0022742  20.3604502  45.5130179
  61.3198522  22.0562945  61.1144231  62.0613207  22.5947989  60.8379055
  60.6135508  22.6829234  61.2715783  66.7953862  24.1992086  59.7116392
  67.2037218  23.7574496  58.9671025  66.0731124  23.6244713  59.9650585
  63.1484932  19.1364692  57.0849949  63.9946127  19.5604106  57.2284598
  63.0883570  18.4798317  57.7788513  67.1182677  24.7593276  53.4668681
  66.4891539  24.9238990  52.7644749  66.7308339  25.1734886  54.2379645
  70.9971909  25.6947714  50.8213045  70.3122947  26.0746616  50.2710078
  71.0815758  26.3043041  51.5544993  66.2984377  16.7969061  58.7431123
  66.0545309  17.5511121  58.2065399  66.5744308  17.1754408  59.5778370
  68.2522840  23.3407673  57.4208389  68.4639736  23.9839433  56.7442770
  68.2052589  22.5069990  56.9530319  65.8549069  15.9525494  54.3244961
  64.9933548  16.2506747  54.6161698  65.8811504  16.1695893  53.3925993
  62.6710639  24.4967684  50.7318766  63.1348984  24.7755387  49.9423389
  62.4067437  23.5951129  50.5491857  59.5634720  24.0439166  53.6698530
  60.1336077  24.4726434  53.0316014  60.1542832  23.7621751  54.3682715
  61.6079525  20.6190837  47.5408332  62.3103568  21.0711880  48.0082258
  61.2760153  19.9774656  48.1688225  60.0559886  19.2102593  61.9159541
  59.4258547  19.8918874  62.1494938  59.9495974  19.0985675  60.9712679
  55.3504859  18.8774389  52.8425465  54.5603913  19.1331918  52.3665576
  55.8416106  19.6922727  52.9477506  69.3668668  26.2179629  55.5930746
  70.1886112  25.8159816  55.3113428  69.3631071  26.1147863  56.5446862
  57.3019604  19.2418969  49.8008942  56.5050767  19.3537663  50.3192438
  57.0745196  19.5805621  48.9349832  63.1325272  25.7663672  57.7491457
  63.1969704  26.2284079  58.5849628  62.4236196  25.1361037  57.8773766
  53.6342562  19.1304880  55.2740456  53.8850600  20.0151890  55.5398032
  54.1702110  18.9509481  54.5015548  77.4574661  22.5618377  51.9415717
  76.7038370  21.9925775  51.7859722  77.5922202  22.5281042  52.8886352
  62.8473289  27.4331779  47.6170437  62.7118964  28.2783315  48.0455285
  63.3883102  27.6351057  46.8536371  59.3340629  13.5123359  64.2784792
  58.9407575  12.9589558  64.9532436  60.1506769  13.8233938  64.6691310
  56.3002687  24.9507217  48.1898362  56.8127207  25.7450468  48.3403927
  56.9525400  24.2533508  48.1231963  58.1097571  28.0672974  50.2721115
  58.2864200  28.9890938  50.0842099  58.9054405  27.7531393  50.7015495
  62.2508590  14.9281238  61.8705049  62.9918303  15.5288391  61.7909511
  62.4826513  14.1858876  61.3123091  57.3949928  20.1137606  60.1483278
  57.2803443  19.2122863  60.4490377  56.5394446  20.3601302  59.7968095
  64.4741766  28.0555346  61.7470779  64.0305620  27.2691724  61.4291683
  65.1358979  28.2434496  61.0814670  59.2328887  29.5851147  56.2731457
  59.7836312  29.4568211  55.5008451  58.3940363  29.8846037  55.9226350
  66.5723004  28.3358146  59.7752180  66.5541479  29.1567027  59.2832449
  67.4942924  28.2112221  60.0002321  63.0296058  25.8502275  60.6175689
  63.5624395  25.0890564  60.3874997  62.5010139  25.5575927  61.3599843
  66.1965753  10.9562341  56.1469330  65.8530022  11.8463983  56.0708441
  66.5644715  10.7663999  55.2838915  54.2651603  23.2795872  48.9657932
  55.1026825  23.6892880  48.7491640  54.4429871  22.3395314  48.9358126
  66.1616036  20.9470952  44.6541765  65.6462659  21.7175557  44.8930153
  65.8893344  20.2736089  45.2774827  63.7463147  15.7920653  49.7127004
  62.8904743  15.4027504  49.5332642  64.1590098  15.8712614  48.8526789
  65.2762293  13.3266996  54.1118564  64.7727089  13.2897132  53.2986369
  65.5692900  14.2359739  54.1715220  61.5205179  13.4105726  53.1184745
  62.3858176  13.2148535  52.7590635  61.5882688  13.1816078  54.0454102
  71.1350310  23.7003307  46.5894939  70.3579753  23.3614467  46.1450101
  71.8141791  23.7055930  45.9149904  65.9502339  18.8198044  46.4801547
  65.6452474  19.1344194  47.3311690  66.9032781  18.8979464  46.5228880
  64.3948771  24.9788268  48.1294501  63.8670132  24.2441027  47.8167738
  63.8936273  25.7562944  47.8834469  69.3741617  23.1737288  53.2461547
  68.7165291  23.8636550  53.3341675  70.1782016  23.5633720  53.5895533
  59.1267498  15.6407934  50.4901112  59.7011250  15.4183116  49.7574305
  59.7138481  15.7096629  51.2429713  68.1847075  21.5281661  51.2965489
  68.6978957  22.1611653  51.7987198  68.8348299  20.9282856  50.9308849
  59.4537085  17.6712395  44.5096997  58.6174398  18.0087082  44.8306272
  59.3141855  17.5361375  43.5724134  61.4290166  12.5149183  49.2176182
  60.7754578  12.1998200  48.5932796  61.3870640  11.8924923  49.9436004
  62.5401371  22.7968478  41.1329474  61.6328433  22.5657732  41.3320623
  63.0372403  22.0006097  41.3203455  65.4469450  31.5065985  44.0526160
  64.7731148  31.8097682  44.6611118  65.8335272  32.3095066  43.7031617
  64.6627906  19.0031117  53.5423829  63.7450468  19.2246064  53.3845517
  65.0788050  19.0777427  52.6835536  65.4462954  20.4022532  48.6726509
  66.1934773  20.9143929  48.3633631  65.7154544  20.0806585  49.5330903
  63.7189604  22.8981073  45.6553464  62.8100823  22.6140106  45.7525933
  63.7484688  23.3180151  44.7956771  68.9508872  26.5087662  49.4244631
  68.4971199  25.6678572  49.4809822  68.3202838  27.1449061  49.7619411
  67.8941791  17.4379648  50.6545299  67.1564548  16.9257035  50.9855541
  68.1468565  16.9980030  49.8428576  67.3941811  28.3464159  50.3594449
  67.6864785  28.9069216  49.6406815  67.9040431  28.6392720  51.1147608
  67.9953419  10.2155900  51.2487068  68.3012295   9.3553264  50.9612983
  68.7206023  10.8073521  51.0486062  54.2877775  20.6186587  49.6368666
  54.0902174  20.0255948  48.9119732  53.7324439  20.3138797  50.3544605
  62.2674498  20.5109694  51.7563259  62.3223108  19.5583530  51.6805736
  61.4565700  20.6669133  52.2404557  63.4165692  24.4389817  42.9941542
  62.9785122  23.7225676  42.5347180  64.1576133  24.6665931  42.4326634
  60.2066858  19.1286753  49.5153638  59.3934724  19.4280924  49.9218830
  60.7025852  18.7342442  50.2328120  62.3575436  29.1244510  51.4487903
  62.3151615  29.3505357  50.5196435  63.2738135  28.8907885  51.5973704
  65.8041070  19.5928578  58.3468532  66.1590458  19.8200051  59.2062998
  66.4513201  19.9246955  57.7245787  71.5338807  22.7147014  49.0517861
  71.3956705  22.9048610  48.1239050  71.1775026  23.4766396  49.5085912
  59.6980933  16.7005109  55.1314873  60.3380312  16.5593868  54.4337836
  58.8658464  16.4139622  54.7553475  71.5608186  24.7823541  54.0629132
  71.9944693  24.6898830  54.9112186  72.2739767  24.7581041  53.4249148
  60.4741237  26.0007539  51.2449865  61.2681835  25.5057859  51.0432440
  59.7632929  25.4725402  50.8817571  65.2936081  28.3825635  55.5962233
  65.3473104  28.9516571  56.3639949  64.4250863  28.5527520  55.2316270
  56.7824000  20.1450621  47.3209618  55.8521588  20.0835076  47.5379580
  56.8781472  19.6226574  46.5246259  56.7009549  16.6705434  49.9087860
  56.9616367  17.5850767  49.7997020  57.5226722  16.2029876  50.0584472
  58.1734475  18.0843191  57.0786684  58.8457528  17.8760553  56.4299333
  57.3464261  17.8865277  56.6391916  72.4223736  24.8247241  56.5962018
  72.6159626  25.7293052  56.8421293  72.3224354  24.3654660  57.4300603
  64.0760047  14.7105132  59.0952345  63.4287962  15.4095082  59.0016821
  64.8461062  15.1441276  59.4628593  67.4838845  24.9753984  62.1702898
  67.3324351  24.7464536  61.2532982  67.4743524  25.9324585  62.1834243
  64.2524181  22.5485897  57.1549165  65.1816241  22.6997056  56.9818132
  63.8315211  22.6369918  56.2997811  63.0512513  26.5736561  54.9247702
  62.9123599  26.2055346  55.7973641  62.2627109  27.0884201  54.7531660
  63.6460665  31.6745658  46.2673239  63.8212421  31.2033701  47.0818862
  62.9593453  32.3011424  46.4954500  64.6017728  25.9518164  52.3136540
  64.2667561  25.9118934  53.2094190  64.1021674  25.2862880  51.8406950
  58.5761972  21.3585794  57.8389121  58.4381770  20.6266033  58.4400660
  59.4866895  21.2694694  57.5573309  67.5376920  23.2974198  42.5873600
  66.9206090  22.5721026  42.4906653  67.0693408  24.0583559  42.2440674
  61.2044273  21.0705753  57.3272801  61.9143891  20.4298945  57.2859419
  61.1613581  21.3218648  58.2498982  69.1931051  28.0073107  60.2479380
  69.1343597  27.3232327  59.5809963  69.5950570  28.7492097  59.7960006
  59.9173207  18.0570971  59.1468440  59.3810564  17.6061710  59.7990037
  59.3289915  18.1916880  58.4038905  58.2121750  34.8235020  53.0413099
  58.4518348  35.4553545  53.7192118  57.3690947  34.4723060  53.3278458
  59.3275466  17.5159623  41.7094904  58.4504932  17.3948423  41.3457151
  59.8033219  16.7245701  41.4573793  69.1948459  25.9712691  58.4793360
  68.3075237  25.6338612  58.6019759  69.7647010  25.2395722  58.7162125
  50.8477606  22.3036782  51.8036411  51.5348646  21.9898512  51.2157427
  50.6925734  23.2078147  51.5303663  55.6512328  17.1926979  56.2321435
  55.5670517  16.5852648  55.4971845  54.8295034  17.6835997  56.2330931
  62.7249612  30.6314143  55.4454603  62.6519783  31.4369114  55.9573908
  62.2827005  30.8306109  54.6202624  62.5139392  29.8685913  48.9557425
  61.7306913  30.4107593  49.0495649  63.2132137  30.3859893  49.3551666
  65.8236042  15.6780542  51.5991630  66.3204741  14.9250505  51.2792700
  65.0523023  15.7144859  51.0334839  73.6765799  21.3820908  53.2409922
  73.6655675  22.2645623  52.8703855  72.8083179  21.0292459  53.0464459
  65.1848295  30.5300977  57.6012762  65.8976268  31.1648442  57.5288663
  64.6938324  30.6264843  56.7852764  66.9065822  24.4352230  49.1730053
  65.9722101  24.5553692  49.0034758  67.0842491  23.5324696  48.9090063
  62.4071010  17.8197925  51.3263315  62.0368798  17.2668966  52.0144220
  62.9030103  17.2156059  50.7738315  70.2938374  20.2769549  49.7080088
  70.7598826  21.1097540  49.6340390  70.7445874  19.8114530  50.4125346
  60.2360209  28.2795420  58.4218333  60.9369669  28.9131903  58.5747727
  59.7655324  28.6210152  57.6613972  68.3614605  26.6213370  46.7066240
  68.6374449  26.5069965  47.6160114  67.4919104  26.2230855  46.6678413
  68.2655037  12.6450136  53.7470989  67.3518116  12.8754363  53.9153196
  68.6948138  12.7288580  54.5985021  68.0361495  20.8340028  56.2470883
  67.3832945  21.0815935  55.5923336  68.4141875  20.0204166  55.9133360
  64.9968669  30.8699721  50.3499053  65.1791063  30.0521377  50.8126806
  65.8201655  31.0867413  49.9123943  65.3310834  29.7967906  47.6114102
  65.8598601  29.2860361  46.9984264  65.5939054  29.4810436  48.4759635
  64.0849068  21.5759839  62.7336920  63.4089705  21.4753968  63.4039295
  64.9076702  21.4199053  63.1972917  55.8327927  27.8131775  55.3549435
  56.4181364  27.0675463  55.4877339  55.6352766  28.1235732  56.2386099
  58.6866582  30.8483023  50.3711878  58.0176958  31.3329150  49.8875918
  58.5479452  31.0952243  51.2855256  50.4245582  20.3837376  54.0753878
  50.4629681  19.8500966  54.8690996  49.9185875  19.8572581  53.4564856
  62.8271851  32.8826766  56.9694536  63.3790159  33.0458388  57.7343621
  63.1678044  33.4731204  56.2974561  57.8036344  15.2301916  57.5716421
  57.8677671  16.0916747  57.1593818  57.7403464  14.6175918  56.8388779
  57.2788617  17.3025049  61.2189455  57.9060655  16.9202126  61.8326979
  56.4216536  17.0839251  61.5845147  67.6782725  27.7088024  62.8243190
  68.2222629  28.3217982  62.3298145  67.0969570  28.2667602  63.3410203
  54.0554159  19.1101478  47.1507810  54.3507600  18.2012156  47.0974863
  53.1542195  19.0889217  46.8288812  65.9640238  30.8308742  53.9558218
  65.8391378  30.0298482  53.4469164  66.6219329  31.3254935  53.4672188
  57.5848406  17.1857474  53.1335358  56.8634992  17.7993442  52.9942832
  58.3741662  17.7215239  53.0552004  68.0275147  28.6317762  55.5837768
  67.0805482  28.5123113  55.5116095  68.3757920  27.7440260  55.6664030
  60.3874720  14.5211901  59.4076010  60.9109122  14.7674197  60.1702319
  60.1687053  15.3531936  58.9879147  55.7842001  16.7915575  47.2747135
  55.4554707  15.9112954  47.0922241  56.1381372  16.7363244  48.1623524
  65.0321580  28.4270478  51.7842120  64.8846542  27.4987186  51.9649691
  65.8575073  28.4490569  51.2999196  58.8983824  17.0788545  47.6422613
  59.2379897  17.6074466  46.9201221  59.3455945  17.4168951  48.4181179
  68.6355702  29.2499037  52.8706993  69.5602249  29.0441898  52.7331444
  68.4671005  29.0015438  53.7796335  61.5927265  15.4625596  57.0925681
  61.2524085  14.6633409  57.4946361  60.8866271  15.7627307  56.5202514
  62.2443737  12.5474908  55.5453004  63.0669806  12.0735387  55.4231894
  62.4881800  13.3265392  56.0451690  60.8851971  15.5763167  45.8415905
  61.6060334  15.9544420  45.3379622  60.2617275  16.2952044  45.9450883
  65.0283094  16.2808316  46.7774238  65.2446709  17.1632954  46.4763066
  64.5477161  15.8894529  46.0479880  59.7682316  19.2394029  53.3544982
  59.6226896  19.5534332  54.2469264  59.2907519  19.8578929  52.8015881
  61.6278698  16.2296577  53.4025872  61.6140267  15.3337670  53.0658170
  62.3451127  16.2367241  54.0364158  63.4804829  16.6633917  55.4478999
  63.2222607  17.5850988  55.4463330  62.9489870  16.2664352  56.1379463
  68.4251018  29.7684704  48.2269085  68.5987895  29.2031127  47.4742937
  68.9179909  30.5685599  48.0448575  54.2427978  21.7799373  56.2932643
  53.6981446  22.5559181  56.4252918  55.1207328  22.1270178  56.1351765
  61.0315594  15.1110957  48.6713442  61.1531506  14.1827603  48.8704330
  60.7417637  15.1249643  47.7591757  63.9006785  12.7965868  51.8080162
  63.9228482  12.8605201  50.8532141  64.3174844  11.9570376  52.0020668
  74.2790409  22.5321127  49.8459384  74.7221555  21.7828452  49.4478508
  73.4016919  22.5231264  49.4633116  69.4126190  29.0851469  45.3265983
  70.1077095  29.7058161  45.5453298  69.7549341  28.2346820  45.6018361
  55.0294000  20.9069270  59.1862800  54.2875736  21.0551905  59.7727431
  54.7086744  21.1677535  58.3229550  71.3117614  26.5351174  46.8553314
  71.8368938  26.8738447  46.1302634  71.2239966  25.5998190  46.6716448
  62.9737662  30.4485248  58.9843190  63.2824789  30.2034395  59.8565890
  63.7713144  30.6531886  58.4962061  62.9958274  32.6023158  51.2148567
  62.5563265  32.1099536  51.9081424  63.7466391  32.0596125  50.9740642
  55.4750613  28.7934698  51.2173195  56.3008633  28.4938470  50.8371839
  55.1244665  28.0242321  51.6662984  60.4432146  28.1461167  53.2870869
  59.8212156  27.4831872  52.9873096  61.1137013  28.1722299  52.6044516
  53.6759218  26.7121025  52.1762129  52.8391127  26.2843199  51.9946130
  53.6482864  26.9053468  53.1132920  60.5156674  16.6242955  62.8803375
  60.5644829  17.5005077  62.4981144  61.0579188  16.0820348  62.3075018
  71.0011520  27.1684078  62.1604512  70.2107063  27.1508217  61.6209011
  70.7644874  27.7072372  62.9153548  71.1209395  24.0176544  59.4737240
  71.1707400  23.8526552  60.4152763  71.0123318  23.1503803  59.0835121
  60.0045653  26.6965090  46.7629329  60.1533774  27.3800554  46.1096002
  60.8112097  26.6770180  47.2778785  68.4113157  20.0007472  60.7896547
  69.3123020  19.8613937  60.4980545  68.4861132  20.1661927  61.7294724
  62.7455962  17.3774327  59.6349733  61.8759272  17.6707893  59.3632322
  62.9815443  17.9614772  60.3556997  72.6227591  26.4373486  59.7179262
  72.3312400  26.8003466  60.5542723  72.0099723  25.7240494  59.5392594
  73.8223274  24.0026366  52.2381832  74.6570165  24.4416170  52.4019392
  73.9582403  23.5265019  51.4190078  70.8714780  21.5606100  58.1859320
  71.3468901  21.7533747  57.3778171  69.9480345  21.6165286  57.9402703
  57.7598286  22.7230268  47.7690398  57.5144328  21.8192598  47.9670608
  57.9294201  22.7247418  46.8269876  65.4494996  13.5953944  57.1515154
  65.9676940  14.3314971  56.8261642  65.0950129  13.9017937  57.9861913
  57.0293934  18.4558625  45.2676559  56.3363179  18.5302980  44.6116595
  56.7845686  17.6918969  45.7898076  65.7007590  10.0154227  52.6716050
  65.9809344   9.3477416  53.2976477  66.4858197  10.2083322  52.1590714
  63.5041059  29.1913220  44.2341077  62.9315026  29.8103408  43.7811548
  64.0773853  29.7412582  44.7680998  69.5716449  18.4371861  56.4187625
  70.5233872  18.5369958  56.4399849  69.4019899  17.6450129  56.9285710
  67.5930828  15.5227444  56.6047026  66.9980760  15.8032456  55.9093515
  67.3080525  16.0121345  57.3763767  66.7238319  29.4750371  45.3649659
  67.6568992  29.4095932  45.5682534  66.6361531  30.3106637  44.9064191
  69.3526335  28.7916241  42.3253606  69.2739967  28.4576105  43.2189364
  70.1736002  29.2838009  42.3245079  72.0504526  21.6577980  55.5329925
  72.0180847  20.7193981  55.7189609  72.6605150  21.7362017  54.7995750
  63.8887857  20.5274033  41.5757129  64.8346962  20.3980241  41.6445547
  63.5102102  19.7888695  42.0526557  72.1999015  18.4489024  55.5788208
  71.6838064  17.6647480  55.3918137  73.0838964  18.1207740  55.7434728
  69.8609742  12.1930039  51.5384021  69.6634563  11.8845127  52.4227353
  70.4709447  12.9191678  51.6681951  77.8681076  22.7193987  54.6735962
  78.5984465  22.4579275  55.2343665  77.2588022  21.9822709  54.7138030
  75.9496373  20.8601850  55.2710413  75.2229537  20.7257815  54.6626905
  75.5343660  21.1678678  56.0767131  63.7726550  24.5791779  63.0357786
  64.6929559  24.7570378  63.2297833  63.7376133  23.6347825  62.8837485
  62.0730775  18.4524010  41.5112014  61.1662230  18.1557122  41.5874728
  62.3506756  18.1553828  40.6446301  52.9908715  19.7730373  51.9611061
  52.6711499  18.9195681  51.6685435  52.4442143  19.9878951  52.7169028
  56.7688622  22.4892814  55.6780567  56.9874632  23.4209922  55.6968601
  57.1814396  22.1300788  56.4635371  63.6892840  12.9960899  47.6656256
  62.8793569  12.6507984  48.0411502  64.3777257  12.6868443  48.2543867
  65.6183389  12.0738946  49.2880552  66.1714427  12.4934400  49.9470575
  65.8553475  11.1474694  49.3303508  61.6416488  18.0626020  65.0683316
  61.5413215  19.0120377  64.9995407  61.4238030  17.7344259  64.1959386
  60.8429559  15.3110945  41.6523993  61.7048723  15.6365843  41.9119811
  61.0279903  14.5242441  41.1397059  52.8596975  23.3933284  53.9304182
  52.1660446  22.9787237  53.4174137  53.6069966  23.4353821  53.3337601
  68.9962196  14.1839471  48.7959216  68.4160865  14.8424275  48.4137269
  68.7298128  13.3616816  48.3846634  67.4465762  13.5844529  50.9980537
  67.9465540  13.6961063  50.1894856  68.0901370  13.2805582  51.6381345
  61.5047758  21.4923159  63.8848378  61.0214840  22.2923519  64.0912267
  61.5908697  21.5031103  62.9315822  54.7733717  23.3251538  51.8070197
  54.7504406  23.4239226  50.8552080  55.0834354  24.1716689  52.1287363
  57.4321095  25.3827693  55.9216812  58.3864349  25.3511636  55.8546743
  57.2333619  24.9218317  56.7367037  58.0220477  23.9528809  58.4887609
  58.8413366  24.4472888  58.5122446  58.2957285  23.0360777  58.4605177
  67.7787074  16.3439562  47.8515565  66.8912929  16.6289212  47.6335759
  68.1941063  16.1833325  47.0042842  71.1301610  16.3686083  51.5669904
  71.9062000  16.8582535  51.8394521  70.4049744  16.7944137  52.0241773
  73.5674168  17.0813702  52.6243845  74.1618659  16.8409438  51.9137153
  73.6400752  16.3620832  53.2517381  55.7871324  30.9247313  52.9387009
  55.6525792  30.1647714  52.3725007  55.3703386  31.6488213  52.4715798
  66.9230287  26.1084236  41.9463585  67.6266137  26.3134239  42.5621240
  66.1992936  26.6760998  42.2112668  67.7528097  21.8594098  48.0665855
  67.6963299  22.3162649  47.2273487  68.3056440  21.0984782  47.8888698
  71.5632903  17.6483829  48.8915974  71.3069838  17.2480465  49.7224182
  70.9385771  18.3627623  48.7666114  75.8745241  20.3879903  51.3987266
  75.3144799  20.4573092  52.1718828  75.2688745  20.2120887  50.6786762
  58.9440450  31.8216630  53.1505452  58.8272834  32.7662062  53.0484142
  58.1232896  31.5190191  53.5391251  68.8316984  26.5466766  43.9962045
  69.6662588  26.1147964  43.8139520  68.6701327  26.3748779  44.9238939
  68.4862877  23.0498879  45.3618384  68.4311680  22.8843150  44.4206828
  67.8608932  23.7574912  45.5180574  53.2755392  18.2866943  59.1879806
  53.9214255  17.7765897  59.6767031  53.0672543  19.0235625  59.7623232
  65.8008784  25.3547791  64.6871947  66.6699943  25.5288443  64.3258582
  65.3215535  26.1742208  64.5647676  61.7959002  12.5506988  44.9403702
  61.7837672  13.4948828  45.0971973  62.6882424  12.3677133  44.6463164
  59.9694964  32.4744892  56.3661380  60.8722211  32.5068502  56.6827875
  59.7432334  31.5445343  56.3807716  61.7248566  31.2275878  53.0271459
  60.7744197  31.2277740  52.9135831  62.0281052  30.4808613  52.5107494
  65.6111122   9.1449764  49.1949639  64.8443517   8.5908251  49.3406322
  66.0221827   9.2171633  50.0563791  57.6152883  15.4334560  63.2854821
  58.4784344  15.0771365  63.4958145  57.0418293  15.0948455  63.9730225
  77.4601260  37.0636417  54.0917222  78.0979670  36.9443164  53.3880562
  77.3422102  38.0117261  54.1505174  74.2690966  37.0163845  54.0278746
  73.9309477  36.9004909  53.1399281  75.1380734  36.6155010  54.0079752
  70.1277782  38.8699321  50.0175637  69.5642647  38.7789258  49.2491925
  70.0130177  38.0499226  50.4978130  74.7510749  38.1698696  59.9864952
  74.7399390  37.7751495  59.1145455  74.9131388  37.4364769  60.5798723
  67.6742214  40.3650513  52.8559858  68.4663505  40.0241337  52.4406157
  67.9138864  40.4745488  53.7762011  71.4718010  40.9535808  58.9344136
  71.1807876  41.8581439  58.8190802  72.1074994  40.9952336  59.6488205
  72.3974217  38.3312657  55.5245495  72.9937789  38.1068679  54.8102458
  72.4549188  37.5897402  56.1270943  71.9699245  35.7852092  43.3595686
  72.2224766  35.2633613  42.5979149  71.0323804  35.6218238  43.4622370
  77.0142528  34.7887870  51.1670430  77.8005617  34.3707294  50.8160847
  77.2781232  35.6933963  51.3352078  82.4150955  34.7263104  52.0703408
  83.1476127  34.1562320  52.3041238  81.6590311  34.3384704  52.5109914
  74.0327075  37.1490345  49.2666751  73.6685282  36.6220966  49.9779672
  74.8894191  36.7588814  49.0933236  79.9376376  28.4384678  56.5298017
  79.6059700  29.3080089  56.3059232  79.3421989  28.1220962  57.2092047
  73.6732562  32.1780245  44.2628099  73.8406964  33.0460481  44.6298570
  73.4829731  32.3407527  43.3389388  76.4307895  40.6397224  55.9293929
  76.1308618  41.5422263  55.8209737  76.0858955  40.3729407  56.7815082
  69.8820377  37.0911021  51.9630634  68.9570873  36.9587235  52.1708326
  70.1304790  37.8705240  52.4600576  79.8305039  33.1579764  53.6091367
  78.9221916  33.0895172  53.3150128  79.7792635  33.6351709  54.4373192
  73.6521783  34.6337902  45.2474766  73.5321408  35.0794953  46.0860246
  72.9574371  34.9823220  44.6888304  67.2429188  36.7344294  52.7974423
  67.3721569  36.9878773  53.7113835  66.5626639  37.3272002  52.4779078
  73.9045905  34.5769410  61.5526264  73.1279239  35.1363330  61.5429129
  74.5436468  35.0626193  62.0741134  81.6966685  31.3596202  55.3869241
  81.0541066  31.6528736  54.7409035  81.1921614  31.2449123  56.1922437
  79.3506849  35.1059376  46.0755100  80.2624705  35.3386762  45.9002797
  78.8416496  35.6896420  45.5130179  72.1592277  37.3854863  61.1144231
  72.9006961  37.9239907  60.8379055  71.4529262  38.0121152  61.2715783
  77.6347617  39.5284003  59.7116392  78.0430973  39.0866414  58.9671025
  76.9124878  38.9536631  59.9650585  73.9878687  34.4656610  57.0849949
  74.8339882  34.8896024  57.2284598  73.9277324  33.8090234  57.7788513
  77.9576431  40.0885194  53.4668681  77.3285294  40.2530908  52.7644749
  77.5702093  40.5026804  54.2379645  81.8365663  41.0239632  50.8213045
  81.1516701  41.4038533  50.2710078  81.9209512  41.6334959  51.5544993
  77.1378132  32.1260979  58.7431123  76.8939064  32.8803039  58.2065399
  77.4138062  32.5046326  59.5778370  79.0916595  38.6699591  57.4208389
  79.3033490  39.3131351  56.7442770  79.0446343  37.8361907  56.9530319
  76.6942824  31.2817412  54.3244961  75.8327303  31.5798665  54.6161698
  76.7205258  31.4987810  53.3925993  73.5104393  39.8259602  50.7318766
  73.9742739  40.1047305  49.9423389  73.2461191  38.9243047  50.5491857
  70.4028474  39.3731084  53.6698530  70.9729831  39.8018352  53.0316014
  70.9936586  39.0913668  54.3682715  72.4473279  35.9482754  47.5408332
  73.1497323  36.4003798  48.0082258  72.1153908  35.3066573  48.1688225
  70.8953641  34.5394511  61.9159541  70.2652301  35.2210792  62.1494938
  70.7889729  34.4277593  60.9712679  66.1898613  34.2066307  52.8425465
  65.3997667  34.4623836  52.3665576  66.6809861  35.0214645  52.9477506
  80.2062423  41.5471546  55.5930746  81.0279866  41.1451734  55.3113428
  80.2024826  41.4439780  56.5446862  68.1413359  34.5710886  49.8008942
  67.3444522  34.6829581  50.3192438  67.9138951  34.9097539  48.9349832
  73.9719026  41.0955590  57.7491457  74.0363459  41.5575997  58.5849628
  73.2629950  40.4652955  57.8773766  64.4736316  34.4596798  55.2740456
  64.7244355  35.3443807  55.5398032  65.0095865  34.2801399  54.5015548
  88.2968416  37.8910295  51.9415717  87.5432124  37.3217693  51.7859722
  88.4315957  37.8572959  52.8886352  70.1734383  28.8415277  64.2784792
  69.7801329  28.2881475  64.9532436  70.9900524  29.1525855  64.6691310
  68.9491326  43.3964891  50.2721115  69.1257954  44.3182856  50.0842099
  69.7448159  43.0823311  50.7015495  73.0902344  30.2573156  61.8705049
  73.8312058  30.8580309  61.7909511  73.3220267  29.5150794  61.3123091
  68.2343682  35.4429523  60.1483278  68.1197198  34.5414781  60.4490377
  67.3788200  35.6893220  59.7968095  75.3135520  43.3847264  61.7470779
  74.8699374  42.5983642  61.4291683  75.9752734  43.5726414  61.0814670
  70.0722641  44.9143065  56.2731457  70.6230066  44.7860129  55.5008451
  69.2334117  45.2137954  55.9226350  77.4116758  43.6650064  59.7752180
  77.3935234  44.4858945  59.2832449  78.3336678  43.5404139  60.0002321
  73.8689812  41.1794193  60.6175689  74.4018149  40.4182481  60.3874997
  73.3403894  40.8867845  61.3599843  77.0359507  26.2854259  56.1469330
  76.6923777  27.1755901  56.0708441  77.4038470  26.0955917  55.2838915
  65.1045358  38.6087789  48.9657932  65.9420580  39.0184798  48.7491640
  65.2823626  37.6687232  48.9358126  77.0009790  36.2762870  44.6541765
  76.4856414  37.0467475  44.8930153  76.7287099  35.6028006  45.2774827
  74.5856901  31.1212571  49.7127004  73.7298497  30.7319421  49.5332642
  74.9983853  31.2004532  48.8526789  76.1156048  28.6558914  54.1118564
  75.6120843  28.6189049  53.2986369  76.4086655  29.5651657  54.1715220
  72.3598934  28.7397644  53.1184745  73.2251930  28.5440453  52.7590635
  72.4276443  28.5107996  54.0454102  81.9744064  39.0295225  46.5894939
  81.1973507  38.6906384  46.1450101  82.6535545  39.0347848  45.9149904
  76.7896093  34.1489962  46.4801547  76.4846229  34.4636111  47.3311690
  77.7426535  34.2271382  46.5228880  80.2135371  38.5029206  53.2461547
  79.5559046  39.1928467  53.3341675  81.0175770  38.8925638  53.5895533
  69.9661253  30.9699852  50.4901112  70.5405005  30.7475033  49.7574305
  70.5532235  31.0388546  51.2429713  79.0240830  36.8573579  51.2965489
  79.5372712  37.4903570  51.7987198  79.6742054  36.2574774  50.9308849
  70.2930840  33.0004313  44.5096997  69.4568152  33.3378999  44.8306272
  70.1535609  32.8653293  43.5724134  72.2683920  27.8441101  49.2176182
  71.6148333  27.5290118  48.5932796  72.2264395  27.2216841  49.9436004
  75.5021661  34.3323034  53.5423829  74.5844222  34.5537981  53.3845517
  75.9181804  34.4069345  52.6835536  76.2856709  35.7314450  48.6726509
  77.0328527  36.2435847  48.3633631  76.5548298  35.4098503  49.5330903
  78.7335546  32.7671566  50.6545299  77.9958303  32.2548952  50.9855541
  78.9862319  32.3271948  49.8428576  78.8347173  25.5447818  51.2487068
  79.1406050  24.6845182  50.9612983  79.5599778  26.1365438  51.0486062
  65.1271529  35.9478505  49.6368666  64.9295929  35.3547865  48.9119732
  64.5718193  35.6430715  50.3544605  73.1068253  35.8401611  51.7563259
  73.1616863  34.8875448  51.6805736  72.2959455  35.9961050  52.2404557
  71.0460613  34.4578671  49.5153638  70.2328478  34.7572842  49.9218830
  71.5419607  34.0634360  50.2328120  76.6434824  34.9220495  58.3468532
  76.9984212  35.1491969  59.2062998  77.2906956  35.2538872  57.7245787
  82.3732561  38.0438931  49.0517861  82.2350460  38.2340527  48.1239050
  82.0168780  38.8058314  49.5085912  70.5374687  32.0297026  55.1314873
  71.1774067  31.8885786  54.4337836  69.7052218  31.7431540  54.7553475
  82.4001941  40.1115458  54.0629132  82.8338448  40.0190747  54.9112186
  83.1133522  40.0872959  53.4249148  71.3134991  41.3299457  51.2449865
  72.1075590  40.8349777  51.0432440  70.6026684  40.8017320  50.8817571
  76.1329836  43.7117552  55.5962233  76.1866858  44.2808489  56.3639949
  75.2644617  43.8819437  55.2316270  67.6217755  35.4742539  47.3209618
  66.6915343  35.4126994  47.5379580  67.7175227  34.9518491  46.5246259
  67.5403304  31.9997351  49.9087860  67.8010121  32.9142685  49.7997020
  68.3620476  31.5321794  50.0584472  69.0128229  33.4135109  57.0786684
  69.6851283  33.2052471  56.4299333  68.1858016  33.2157195  56.6391916
  83.2617490  40.1539159  56.5962018  83.4553381  41.0584969  56.8421293
  83.1618109  39.6946578  57.4300603  74.9153801  30.0397050  59.0952345
  74.2681716  30.7386999  59.0016821  75.6854817  30.4733193  59.4628593
  78.3232599  40.3045902  62.1702898  78.1718106  40.0756453  61.2532982
  78.3137279  41.2616503  62.1834243  75.0917936  37.8777814  57.1549165
  76.0209996  38.0288974  56.9818132  74.6708966  37.9661835  56.2997811
  73.8906267  41.9028479  54.9247702  73.7517353  41.5347263  55.7973641
  73.1020864  42.4176118  54.7531660  75.4411482  41.2810082  52.3136540
  75.1061315  41.2410852  53.2094190  74.9415428  40.6154798  51.8406950
  69.4155726  36.6877712  57.8389121  69.2775524  35.9557950  58.4400660
  70.3260650  36.5986612  57.5573309  72.0438027  36.3997671  57.3272801
  72.7537646  35.7590863  57.2859419  72.0007335  36.6510566  58.2498982
  80.0324806  43.3365024  60.2479380  79.9737352  42.6524244  59.5809963
  80.4344324  44.0784014  59.7960006  70.7566961  33.3862889  59.1468440
  70.2204318  32.9353627  59.7990037  70.1683670  33.5208798  58.4038905
  70.1669220  32.8451540  41.7094904  69.2898686  32.7240341  41.3457151
  70.6426973  32.0537619  41.4573793  80.0342213  41.3004608  58.4793360
  79.1468992  40.9630530  58.6019759  80.6040764  40.5687639  58.7162125
  61.6871360  37.6328700  51.8036411  62.3742400  37.3190430  51.2157427
  61.5319489  38.5370065  51.5303663  66.4906082  32.5218897  56.2321435
  66.4064271  31.9144566  55.4971845  65.6688789  33.0127915  56.2330931
  73.5643366  45.9606061  55.4454603  73.4913538  46.7661032  55.9573908
  73.1220760  46.1598026  54.6202624  76.6629796  31.0072460  51.5991630
  77.1598496  30.2542422  51.2792700  75.8916778  31.0436777  51.0334839
  84.5159554  36.7112826  53.2409922  84.5049430  37.5937541  52.8703855
  83.6476933  36.3584376  53.0464459  76.0242050  45.8592895  57.6012762
  76.7370022  46.4940359  57.5288663  75.5332079  45.9556761  56.7852764
  77.7459577  39.7644147  49.1730053  76.8115856  39.8845610  49.0034758
  77.9236245  38.8616614  48.9090063  73.2464765  33.1489843  51.3263315
  72.8762552  32.5960883  52.0144220  73.7423857  32.5447977  50.7738315
  81.1332128  35.6061467  49.7080088  81.5992580  36.4389458  49.6340390
  81.5839629  35.1406448  50.4125346  71.0753964  43.6087338  58.4218333
  71.7763423  44.2423821  58.5747727  70.6049079  43.9502070  57.6613972
  79.1048791  27.9742054  53.7470989  78.1911871  28.2046280  53.9153196
  79.5341892  28.0580498  54.5985021  78.8755249  36.1631946  56.2470883
  78.2226700  36.4107853  55.5923336  79.2535629  35.3496084  55.9133360
  74.9242823  36.9051757  62.7336920  74.2483460  36.8045886  63.4039295
  75.7470456  36.7490970  63.1972917  66.6721682  43.1423693  55.3549435
  67.2575118  42.3967381  55.4877339  66.4746520  43.4527650  56.2386099
  61.2639336  35.7129293  54.0753878  61.3023436  35.1792884  54.8690996
  60.7579629  35.1864499  53.4564856  73.6665605  48.2118684  56.9694536
  74.2183913  48.3750306  57.7343621  74.0071799  48.8023122  56.2974561
  68.6430099  30.5593834  57.5716421  68.7071425  31.4208665  57.1593818
  68.5797219  29.9467835  56.8388779  68.1182371  32.6316966  61.2189455
  68.7454410  32.2494044  61.8326979  67.2610290  32.4131168  61.5845147
  78.5176480  43.0379942  62.8243190  79.0616384  43.6509900  62.3298145
  77.9363325  43.5959520  63.3410203  64.8947914  34.4393395  47.1507810
  65.1901355  33.5304074  47.0974863  63.9935950  34.4181135  46.8288812
  76.8033993  46.1600660  53.9558218  76.6785132  45.3590399  53.4469164
  77.4613084  46.6546853  53.4672188  68.4242161  32.5149392  53.1335358
  67.7028747  33.1285360  52.9942832  69.2135417  33.0507157  53.0552004
  78.8668901  43.9609680  55.5837768  77.9199237  43.8415031  55.5116095
  79.2151674  43.0732178  55.6664030  71.2268474  29.8503819  59.4076010
  71.7502876  30.0966115  60.1702319  71.0080808  30.6823853  58.9879147
  66.6235755  32.1207493  47.2747135  66.2948462  31.2404872  47.0922241
  66.9775126  32.0655162  48.1623524  69.7377579  32.4080463  47.6422613
  70.0773651  32.9366384  46.9201221  70.1849699  32.7460869  48.4181179
  79.4749456  44.5790955  52.8706993  80.3996004  44.3733816  52.7331444
  79.3064760  44.3307356  53.7796335  72.4321019  30.7917514  57.0925681
  72.0917840  29.9925327  57.4946361  71.7260026  31.0919224  56.5202514
  73.0837491  27.8766826  55.5453004  73.9063561  27.4027304  55.4231894
  73.3275555  28.6557310  56.0451690  71.7245726  30.9055085  45.8415905
  72.4454088  31.2836337  45.3379622  71.1011030  31.6243961  45.9450883
  75.8676849  31.6100233  46.7774238  76.0840463  32.4924871  46.4763066
  75.3870916  31.2186447  46.0479880  70.6076070  34.5685947  53.3544982
  70.4620651  34.8826250  54.2469264  70.1301274  35.1870847  52.8015881
  72.4672453  31.5588495  53.4025872  72.4534022  30.6629588  53.0658170
  73.1844881  31.5659158  54.0364158  74.3198584  31.9925835  55.4478999
  74.0616361  32.9142906  55.4463330  73.7883624  31.5956269  56.1379463
  65.0821732  37.1091291  56.2932643  64.5375200  37.8851099  56.4252918
  65.9601082  37.4562096  56.1351765  71.8709349  30.4402875  48.6713442
  71.9925260  29.5119521  48.8704330  71.5811391  30.4541561  47.7591757
  74.7400539  28.1257785  51.8080162  74.7622236  28.1897119  50.8532141
  75.1568598  27.2862294  52.0020668  85.1184164  37.8613045  49.8459384
  85.5615310  37.1120370  49.4478508  84.2410674  37.8523181  49.4633116
  65.8687754  36.2361187  59.1862800  65.1269490  36.3843823  59.7727431
  65.5480498  36.4969453  58.3229550  73.8131417  45.7777166  58.9843190
  74.1218543  45.5326312  59.8565890  74.6106899  45.9823804  58.4962061
  66.3144368  44.1226616  51.2173195  67.1402388  43.8230388  50.8371839
  65.9638420  43.3534239  51.6662984  71.2825901  43.4753084  53.2870869
  70.6605910  42.8123789  52.9873096  71.9530768  43.5014216  52.6044516
  64.5152973  42.0412943  52.1762129  63.6784881  41.6135117  51.9946130
  64.4876618  42.2345386  53.1132920  71.3550428  31.9534872  62.8803375
  71.4038584  32.8296995  62.4981144  71.8972943  31.4112265  62.3075018
  81.8405274  42.4975996  62.1604512  81.0500818  42.4800134  61.6209011
  81.6038629  43.0364289  62.9153548  81.9603149  39.3468462  59.4737240
  82.0101154  39.1818469  60.4152763  81.8517072  38.4795721  59.0835121
  79.2506912  35.3299390  60.7896547  80.1516774  35.1905855  60.4980545
  79.3254886  35.4953845  61.7294724  73.5849717  32.7066245  59.6349733
  72.7153026  32.9999811  59.3632322  73.8209197  33.2906690  60.3556997
  83.4621346  41.7665403  59.7179262  83.1706154  42.1295384  60.5542723
  82.8493477  41.0532412  59.5392594  84.6617028  39.3318283  52.2381832
  85.4963920  39.7708087  52.4019392  84.7976157  38.8556936  51.4190078
  81.7108534  36.8898018  58.1859320  82.1862656  37.0825664  57.3778171
  80.7874100  36.9457204  57.9402703  68.5992041  38.0522185  47.7690398
  68.3538083  37.1484515  47.9670608  68.7687955  38.0539336  46.8269876
  76.2888751  28.9245862  57.1515154  76.8070695  29.6606889  56.8261642
  75.9343883  29.2309855  57.9861913  67.8687688  33.7850543  45.2676559
  67.1756933  33.8594898  44.6116595  67.6239440  33.0210887  45.7898076
  76.5401345  25.3446144  52.6716050  76.8203099  24.6769333  53.2976477
  77.3251952  25.5375240  52.1590714  80.4110203  33.7663778  56.4187625
  81.3627626  33.8661876  56.4399849  80.2413654  32.9742047  56.9285710
  78.4324583  30.8519361  56.6047026  77.8374515  31.1324374  55.9093515
  78.1474279  31.3413262  57.3763767  82.8898281  36.9869898  55.5329925
  82.8574601  36.0485899  55.7189609  83.4998905  37.0653935  54.7995750
  74.7281612  35.8565951  41.5757129  75.6740717  35.7272159  41.6445547
  74.3495857  35.1180613  42.0526557  83.0392769  33.7780941  55.5788208
  82.5231818  32.9939398  55.3918137  83.9232718  33.4499658  55.7434728
  80.7003496  27.5221957  51.5384021  80.5028318  27.2137045  52.4227353
  81.3103202  28.2483596  51.6681951  88.7074831  38.0485905  54.6735962
  89.4378219  37.7871193  55.2343665  88.0981776  37.3114627  54.7138030
  86.7890128  36.1893767  55.2710413  86.0623292  36.0549732  54.6626905
  86.3737415  36.4970596  56.0767131  74.6120304  39.9083697  63.0357786
  75.5323314  40.0862296  63.2297833  74.5769887  38.9639742  62.8837485
  72.9124529  33.7815927  41.5112014  72.0055984  33.4849040  41.5874728
  73.1900510  33.4845745  40.6446301  63.8302469  35.1022291  51.9611061
  63.5105254  34.2487599  51.6685435  63.2835898  35.3170869  52.7169028
  67.6082377  37.8184732  55.6780567  67.8268387  38.7501839  55.6968601
  68.0208151  37.4592706  56.4635371  74.5286595  28.3252817  47.6656256
  73.7187323  27.9799902  48.0411502  75.2171012  28.0160361  48.2543867
  76.4577143  27.4030864  49.2880552  77.0108182  27.8226317  49.9470575
  76.6947229  26.4766612  49.3303508  72.4810242  33.3917937  65.0683316
  72.3806969  34.3412294  64.9995407  72.2631784  33.0636176  64.1959386
  71.6823314  30.6402862  41.6523993  72.5442478  30.9657761  41.9119811
  71.8673658  29.8534358  41.1397059  63.6990729  38.7225202  53.9304182
  63.0054201  38.3079155  53.4174137  64.4463720  38.7645739  53.3337601
  79.8355950  29.5131389  48.7959216  79.2554619  30.1716193  48.4137269
  79.5691883  28.6908734  48.3846634  78.2859516  28.9136447  50.9980537
  78.7859295  29.0252981  50.1894856  78.9295124  28.6097499  51.6381345
  72.3441512  36.8215076  63.8848378  71.8608594  37.6215436  64.0912267
  72.4302451  36.8323021  62.9315822  65.6127472  38.6543456  51.8070197
  65.5898160  38.7531143  50.8552080  65.9228108  39.5008607  52.1287363
  68.2714850  40.7119611  55.9216812  69.2258103  40.6803553  55.8546743
  68.0727373  40.2510235  56.7367037  68.8614232  39.2820727  58.4887609
  69.6807121  39.7764806  58.5122446  69.1351040  38.3652695  58.4605177
  78.6180828  31.6731479  47.8515565  77.7306683  31.9581130  47.6335759
  79.0334817  31.5125243  47.0042842  81.9695364  31.6978000  51.5669904
  82.7455754  32.1874453  51.8394521  81.2443498  32.1236054  52.0241773
  84.4067923  32.4105620  52.6243845  85.0012414  32.1701355  51.9137153
  84.4794507  31.6912750  53.2517381  66.6265079  46.2539230  52.9387009
  66.4919547  45.4939631  52.3725007  66.2097141  46.9780130  52.4715798
  78.5921852  37.1886015  48.0665855  78.5357053  37.6454567  47.2273487
  79.1450194  36.4276700  47.8888698  82.4026658  32.9775747  48.8915974
  82.1463592  32.5772383  49.7224182  81.7779526  33.6919541  48.7666114
  86.7138996  35.7171820  51.3987266  86.1538554  35.7865010  52.1718828
  86.1082499  35.5412805  50.6786762  69.7834204  47.1508547  53.1505452
  69.6666589  48.0953980  53.0484142  68.9626651  46.8482109  53.5391251
  79.3256631  38.3790796  45.3618384  79.2705435  38.2135068  44.4206828
  78.7002686  39.0866829  45.5180574  64.1149146  33.6158861  59.1879806
  64.7608010  33.1057815  59.6767031  63.9066297  34.3527543  59.7623232
  76.6402538  40.6839708  64.6871947  77.5093698  40.8580361  64.3258582
  76.1609290  41.5034125  64.5647676  72.6352757  27.8798906  44.9403702
  72.6231426  28.8240745  45.0971973  73.5276178  27.6969051  44.6463164
  70.8088719  47.8036809  56.3661380  71.7115965  47.8360420  56.6827875
  70.5826089  46.8737260  56.3807716  76.4504876  24.4741682  49.1949639
  75.6837272  23.9200169  49.3406322  76.8615581  24.5463551  50.0563791
  68.4546637  30.7626478  63.2854821  69.3178099  30.4063283  63.4958145
  67.8812048  30.4240373  63.9730225  88.2995014  52.3928334  54.0917222
  88.9373424  52.2735082  53.3880562  88.1815857  53.3409178  54.1505174
  85.1084720  52.3455762  54.0278746  84.7703232  52.2296827  53.1399281
  85.9774489  51.9446927  54.0079752  85.5904503  53.4990614  59.9864952
  85.5793144  53.1043412  59.1145455  85.7525143  52.7656687  60.5798723
  82.3111764  56.2827726  58.9344136  82.0201630  57.1873357  58.8190802
  82.9468749  56.3244254  59.6488205  83.2367971  53.6604574  55.5245495
  83.8331544  53.4360597  54.8102458  83.2942943  52.9189320  56.1270943
  87.8536283  50.1179788  51.1670430  88.6399372  49.6999211  50.8160847
  88.1174987  51.0225880  51.3352078  93.2544710  50.0555021  52.0703408
  93.9869882  49.4854238  52.3041238  92.4984065  49.6676622  52.5109914
  90.7770130  43.7676595  56.5298017  90.4453455  44.6372006  56.3059232
  90.1815743  43.4512879  57.2092047  87.2701650  55.9689141  55.9293929
  86.9702373  56.8714180  55.8209737  86.9252709  55.7021325  56.7815082
  90.6698793  48.4871682  53.6091367  89.7615671  48.4187090  53.3150128
  90.6186389  48.9643627  54.4373192  78.0822942  52.0636212  52.7974423
  78.2115323  52.3170691  53.7113835  77.4020393  52.6563920  52.4779078
  84.7439659  49.9061327  61.5526264  83.9672993  50.4655247  61.5429129
  85.3830222  50.3918110  62.0741134  92.5360440  46.6888120  55.3869241
  91.8934820  46.9820653  54.7409035  92.0315368  46.5741040  56.1922437
  90.1900603  50.4351293  46.0755100  91.1018460  50.6678680  45.9002797
  89.6810250  51.0188337  45.5130179  82.9986031  52.7146781  61.1144231
  83.7400716  53.2531825  60.8379055  82.2923017  53.3413069  61.2715783
  88.4741371  54.8575921  59.7116392  88.8824727  54.4158332  58.9671025
  87.7518633  54.2828549  59.9650585  84.8272441  49.7948528  57.0849949
  85.6733636  50.2187941  57.2284598  84.7671079  49.1382152  57.7788513
  88.7970186  55.4177112  53.4668681  88.1679048  55.5822826  52.7644749
  88.4095848  55.8318721  54.2379645  92.6759418  56.3531550  50.8213045
  91.9910456  56.7330451  50.2710078  92.7603267  56.9626876  51.5544993
  87.9771886  47.4552896  58.7431123  87.7332818  48.2094957  58.2065399
  88.2531817  47.8338244  59.5778370  89.9310349  53.9991509  57.4208389
  90.1427244  54.6423268  56.7442770  89.8840097  53.1653825  56.9530319
  87.5336578  46.6109329  54.3244961  86.6721057  46.9090583  54.6161698
  87.5599013  46.8279728  53.3925993  81.7347395  49.8686429  61.9159541
  81.1046056  50.5502710  62.1494938  81.6283483  49.7569510  60.9712679
  77.0292368  49.5358225  52.8425465  76.2391422  49.7915753  52.3665576
  77.5203615  50.3506563  52.9477506  91.0456177  56.8763464  55.5930746
  91.8673621  56.4743651  55.3113428  91.0418580  56.7731698  56.5446862
  84.8112781  56.4247507  57.7491457  84.8757213  56.8867915  58.5849628
  84.1023705  55.7944872  57.8773766  75.3130071  49.7888715  55.2740456
  75.5638109  50.6735725  55.5398032  75.8489619  49.6093317  54.5015548
  99.1362170  53.2202212  51.9415717  98.3825879  52.6509611  51.7859722
  99.2709711  53.1864877  52.8886352  81.0128138  44.1707195  64.2784792
  80.6195083  43.6173393  64.9532436  81.8294278  44.4817773  64.6691310
  83.9296099  45.5865074  61.8705049  84.6705812  46.1872227  61.7909511
  84.1614022  44.8442711  61.3123091  79.0737437  50.7721441  60.1483278
  78.9590952  49.8706698  60.4490377  78.2181955  51.0185138  59.7968095
  86.1529275  58.7139181  61.7470779  85.7093129  57.9275560  61.4291683
  86.8146488  58.9018332  61.0814670  80.9116396  60.2434983  56.2731457
  81.4623821  60.1152046  55.5008451  80.0727872  60.5429872  55.9226350
  88.2510513  58.9941981  59.7752180  88.2328988  59.8150862  59.2832449
  89.1730433  58.8696056  60.0002321  84.7083567  56.5086111  60.6175689
  85.2411904  55.7474399  60.3874997  84.1797648  56.2159762  61.3599843
  87.8753262  41.6146177  56.1469330  87.5317531  42.5047818  56.0708441
  88.2432224  41.4247834  55.2838915  85.4250656  46.4504489  49.7127004
  84.5692252  46.0611339  49.5332642  85.8377607  46.5296449  48.8526789
  86.9549802  43.9850832  54.1118564  86.4514598  43.9480967  53.2986369
  87.2480409  44.8943575  54.1715220  83.1992688  44.0689562  53.1184745
  84.0645685  43.8732370  52.7590635  83.2670197  43.8399913  54.0454102
  92.8137819  54.3587142  46.5894939  92.0367261  54.0198302  46.1450101
  93.4929300  54.3639766  45.9149904  91.0529126  53.8321124  53.2461547
  90.3952800  54.5220385  53.3341675  91.8569525  54.2217556  53.5895533
  89.8634584  52.1865496  51.2965489  90.3766466  52.8195488  51.7987198
  90.5135808  51.5866692  50.9308849  83.1077675  43.1733018  49.2176182
  82.4542087  42.8582036  48.5932796  83.0658149  42.5508759  49.9436004
  86.3415415  49.6614952  53.5423829  85.4237977  49.8829899  53.3845517
  86.7575559  49.7361262  52.6835536  87.1250463  51.0606368  48.6726509
  87.8722282  51.5727765  48.3633631  87.3942053  50.7390420  49.5330903
  90.6296381  57.1671498  49.4244631  90.1758708  56.3262408  49.4809822
  89.9990347  57.8032896  49.7619411  89.5729300  48.0963484  50.6545299
  88.8352057  47.5840870  50.9855541  89.8256074  47.6563865  49.8428576
  89.0729320  59.0047994  50.3594449  89.3652294  59.5653052  49.6406815
  89.5827940  59.2976555  51.1147608  89.6740928  40.8739736  51.2487068
  89.9799804  40.0137099  50.9612983  90.3993532  41.4657356  51.0486062
  83.9462007  51.1693529  51.7563259  84.0010617  50.2167365  51.6805736
  83.1353209  51.3252968  52.2404557  81.8854367  49.7870589  49.5153638
  81.0722233  50.0864759  49.9218830  82.3813361  49.3926277  50.2328120
  84.0362945  59.7828346  51.4487903  83.9939124  60.0089192  50.5196435
  84.9525644  59.5491720  51.5973704  87.4828579  50.2512413  58.3468532
  87.8377967  50.4783886  59.2062998  88.1300710  50.5830790  57.7245787
  93.2126316  53.3730849  49.0517861  93.0744214  53.5632445  48.1239050
  92.8562535  54.1350232  49.5085912  81.3768442  47.3588944  55.1314873
  82.0167821  47.2177703  54.4337836  80.5445972  47.0723458  54.7553475
  93.2395695  55.4407376  54.0629132  93.6732202  55.3482665  54.9112186
  93.9527276  55.4164876  53.4249148  86.9723590  59.0409470  55.5962233
  87.0260613  59.6100406  56.3639949  86.1038372  59.2111355  55.2316270
  79.8521984  48.7427026  57.0786684  80.5245037  48.5344388  56.4299333
  79.0251770  48.5449112  56.6391916  94.1011245  55.4831077  56.5962018
  94.2947135  56.3876887  56.8421293  94.0011863  55.0238496  57.4300603
  85.7547556  45.3688967  59.0952345  85.1075471  46.0678917  59.0016821
  86.5248571  45.8025111  59.4628593  89.1626354  55.6337819  62.1702898
  89.0111860  55.4048371  61.2532982  89.1531033  56.5908421  62.1834243
  85.9311690  53.2069732  57.1549165  86.8603750  53.3580892  56.9818132
  85.5102720  53.2953753  56.2997811  84.7300022  57.2320397  54.9247702
  84.5911108  56.8639181  55.7973641  83.9414618  57.7468036  54.7531660
  86.2805237  56.6101999  52.3136540  85.9455070  56.5702769  53.2094190
  85.7809183  55.9446715  51.8406950  80.2549481  52.0169629  57.8389121
  80.1169279  51.2849868  58.4400660  81.1654404  51.9278529  57.5573309
  82.8831782  51.7289589  57.3272801  83.5931400  51.0882781  57.2859419
  82.8401090  51.9802483  58.2498982  90.8718560  58.6656942  60.2479380
  90.8131106  57.9816162  59.5809963  91.2738079  59.4075932  59.7960006
  81.5960716  48.7154806  59.1468440  81.0598073  48.2645545  59.7990037
  81.0077424  48.8500715  58.4038905  79.8909259  65.4818856  53.0413099
  80.1305857  66.1137380  53.7192118  79.0478456  65.1306896  53.3278458
  90.8735968  56.6296526  58.4793360  89.9862746  56.2922448  58.6019759
  91.4434519  55.8979557  58.7162125  77.3299837  47.8510814  56.2321435
  77.2458026  47.2436484  55.4971845  76.5082543  48.3419833  56.2330931
  84.4037121  61.2897978  55.4454603  84.3307292  62.0952950  55.9573908
  83.9614514  61.4889944  54.6202624  87.5023551  46.3364378  51.5991630
  87.9992250  45.5834340  51.2792700  86.7310532  46.3728694  51.0334839
  95.3553308  52.0404743  53.2409922  95.3443184  52.9229459  52.8703855
  94.4870688  51.6876294  53.0464459  86.8635804  61.1884812  57.6012762
  87.5763777  61.8232277  57.5288663  86.3725833  61.2848678  56.7852764
  88.5853331  55.0936065  49.1730053  87.6509610  55.2137527  49.0034758
  88.7630000  54.1908532  48.9090063  84.0858519  48.4781761  51.3263315
  83.7156307  47.9252801  52.0144220  84.5817612  47.8739894  50.7738315
  91.9725883  50.9353384  49.7080088  92.4386335  51.7681376  49.6340390
  92.4233383  50.4698366  50.4125346  81.9147718  58.9379256  58.4218333
  82.6157178  59.5715739  58.5747727  81.4442833  59.2793987  57.6613972
  90.0402114  57.2797206  46.7066240  90.3161958  57.1653800  47.6160114
  89.1706613  56.8814690  46.6678413  89.9442545  43.3033971  53.7470989
  89.0305625  43.5338198  53.9153196  90.3735647  43.3872415  54.5985021
  89.7149004  51.4923863  56.2470883  89.0620454  51.7399771  55.5923336
  90.0929384  50.6788001  55.9133360  86.6756178  61.5283556  50.3499053
  86.8578572  60.7105212  50.8126806  87.4989164  61.7451249  49.9123943
  87.0098343  60.4551741  47.6114102  87.5386110  59.9444196  46.9984264
  87.2726563  60.1394272  48.4759635  85.7636577  52.2343674  62.7336920
  85.0877214  52.1337804  63.4039295  86.5864211  52.0782888  63.1972917
  72.1033091  51.0421211  54.0753878  72.1417190  50.5084802  54.8690996
  71.5973384  50.5156417  53.4564856  84.5059360  63.5410602  56.9694536
  85.0577668  63.7042223  57.7343621  84.8465553  64.1315040  56.2974561
  79.4823853  45.8885751  57.5716421  79.5465180  46.7500582  57.1593818
  79.4190973  45.2759753  56.8388779  78.9576126  47.9608884  61.2189455
  79.5848164  47.5785961  61.8326979  78.1004044  47.7423086  61.5845147
  89.3570234  58.3671859  62.8243190  89.9010138  58.9801817  62.3298145
  88.7757079  58.9251438  63.3410203  87.6427747  61.4892577  53.9558218
  87.5178887  60.6882317  53.4469164  88.3006838  61.9838771  53.4672188
  79.2635915  47.8441310  53.1335358  78.5422501  48.4577277  52.9942832
  80.0529171  48.3799075  53.0552004  89.7062656  59.2901597  55.5837768
  88.7592991  59.1706948  55.5116095  90.0545429  58.4024095  55.6664030
  82.0662229  45.1795736  59.4076010  82.5896631  45.4258033  60.1702319
  81.8474562  46.0115771  58.9879147  86.7109089  59.0854314  51.7842120
  86.5634051  58.1571021  51.9649691  87.5362582  59.1074404  51.2999196
  90.3143211  59.9082872  52.8706993  91.2389758  59.7025734  52.7331444
  90.1458514  59.6599273  53.7796335  83.2714774  46.1209431  57.0925681
  82.9311594  45.3217244  57.4946361  82.5653780  46.4211142  56.5202514
  83.9231246  43.2058744  55.5453004  84.7457315  42.7319222  55.4231894
  84.1669309  43.9849228  56.0451690  86.7070603  46.9392151  46.7774238
  86.9234218  47.8216789  46.4763066  86.2264670  46.5478365  46.0479880
  81.4469825  49.8977864  53.3544982  81.3014405  50.2118167  54.2469264
  80.9695028  50.5162765  52.8015881  83.3066207  46.8880412  53.4025872
  83.2927776  45.9921506  53.0658170  84.0238636  46.8951076  54.0364158
  85.1592338  47.3217753  55.4478999  84.9010116  48.2434823  55.4463330
  84.6277379  46.9248187  56.1379463  90.1038527  60.4268540  48.2269085
  90.2775404  59.8614962  47.4742937  90.5967418  61.2269435  48.0448575
  75.9215487  52.4383209  56.2932643  75.3768955  53.2143017  56.4252918
  76.7994837  52.7854013  56.1351765  82.7103103  45.7694793  48.6713442
  82.8319015  44.8411439  48.8704330  82.4205146  45.7833479  47.7591757
  85.5794294  43.4549703  51.8080162  85.6015991  43.5189036  50.8532141
  85.9962353  42.6154212  52.0020668  95.9577918  53.1904963  49.8459384
  96.4009064  52.4412288  49.4478508  95.0804428  53.1815099  49.4633116
  91.0913699  59.7435304  45.3265983  91.7864604  60.3641997  45.5453298
  91.4336850  58.8930655  45.6018361  76.7081509  51.5653105  59.1862800
  75.9663245  51.7135740  59.7727431  76.3874253  51.8261371  58.3229550
  92.9905123  57.1935010  46.8553314  93.5156447  57.5322282  46.1302634
  92.9027475  56.2582025  46.6716448  84.6525171  61.1069083  58.9843190
  84.9612298  60.8618230  59.8565890  85.4500653  61.3115722  58.4962061
  82.1219655  58.8045002  53.2870869  81.4999665  58.1415707  52.9873096
  82.7924522  58.8306134  52.6044516  82.1944183  47.2826790  62.8803375
  82.2432338  48.1588913  62.4981144  82.7366697  46.7404183  62.3075018
  92.6799029  57.8267913  62.1604512  91.8894572  57.8092052  61.6209011
  92.4432383  58.3656207  62.9153548  92.7996904  54.6760380  59.4737240
  92.8494909  54.5110387  60.4152763  92.6910827  53.8087639  59.0835121
  90.0900666  50.6591308  60.7896547  90.9910529  50.5197773  60.4980545
  90.1648641  50.8245763  61.7294724  84.4243471  48.0358162  59.6349733
  83.5546781  48.3291728  59.3632322  84.6602952  48.6198607  60.3556997
  94.3015100  57.0957321  59.7179262  94.0099909  57.4587302  60.5542723
  93.6887232  56.3824329  59.5392594  95.5010783  54.6610201  52.2381832
  96.3357674  55.1000005  52.4019392  95.6369912  54.1848854  51.4190078
  92.5502289  52.2189936  58.1859320  93.0256410  52.4117582  57.3778171
  91.6267854  52.2749122  57.9402703  87.1282505  44.2537779  57.1515154
  87.6464449  44.9898806  56.8261642  86.7737638  44.5601773  57.9861913
  87.3795099  40.6738062  52.6716050  87.6596853  40.0061251  53.2976477
  88.1645706  40.8667158  52.1590714  91.2503958  49.0955696  56.4187625
  92.2021381  49.1953794  56.4399849  91.0807408  48.3033964  56.9285710
  89.2718337  46.1811279  56.6047026  88.6768269  46.4616292  55.9093515
  88.9868034  46.6705180  57.3763767  88.4025828  60.1334206  45.3649659
  89.3356501  60.0679768  45.5682534  88.3149040  60.9690473  44.9064191
  93.7292035  52.3161816  55.5329925  93.6968356  51.3777816  55.7189609
  94.3392659  52.3945852  54.7995750  93.8786524  49.1072859  55.5788208
  93.3625573  48.3231316  55.3918137  94.7626472  48.7791576  55.7434728
  91.5397251  42.8513875  51.5384021  91.3422072  42.5428963  52.4227353
  92.1496956  43.5775513  51.6681951  99.5468585  53.3777822  54.6735962
 100.2771974  53.1163111  55.2343665  98.9375531  52.6406544  54.7138030
  97.6283882  51.5185685  55.2710413  96.9017046  51.3841650  54.6626905
  97.2131169  51.8262514  56.0767131  85.4514059  55.2375615  63.0357786
  86.3717068  55.4154214  63.2297833  85.4163642  54.2931660  62.8837485
  78.4476131  53.1476649  55.6780567  78.6662141  54.0793757  55.6968601
  78.8601905  52.7884624  56.4635371  85.3680349  43.6544735  47.6656256
  84.5581078  43.3091820  48.0411502  86.0564766  43.3452278  48.2543867
  87.2970897  42.7322781  49.2880552  87.8501936  43.1518235  49.9470575
  87.5340984  41.8058530  49.3303508  83.3203997  48.7209855  65.0683316
  83.2200724  49.6704212  64.9995407  83.1025539  48.3928094  64.1959386
  90.6749705  44.8423307  48.7959216  90.0948374  45.5008111  48.4137269
  90.4085637  44.0200651  48.3846634  89.1253271  44.2428364  50.9980537
  89.6253049  44.3544899  50.1894856  89.7688879  43.9389417  51.6381345
  83.1835267  52.1506994  63.8848378  82.7002348  52.9507354  64.0912267
  83.2696206  52.1614939  62.9315822  79.1108604  56.0411529  55.9216812
  80.0651858  56.0095471  55.8546743  78.9121128  55.5802152  56.7367037
  79.7007986  54.6112645  58.4887609  80.5200875  55.1056723  58.5122446
  79.9744794  53.6944613  58.4605177  89.4574583  47.0023397  47.8515565
  88.5700438  47.2873048  47.6335759  89.8728572  46.8417160  47.0042842
  92.8089119  47.0269918  51.5669904  93.5849509  47.5166370  51.8394521
  92.0837253  47.4527972  52.0241773  95.2461677  47.7397537  52.6243845
  95.8406168  47.4993273  51.9137153  95.3188261  47.0204668  53.2517381
  89.4315606  52.5177933  48.0665855  89.3750808  52.9746484  47.2273487
  89.9843949  51.7568618  47.8888698  93.2420412  48.3067665  48.8915974
  92.9857346  47.9064300  49.7224182  92.6173280  49.0211459  48.7666114
  97.5532750  51.0463738  51.3987266  96.9932308  51.1156927  52.1718828
  96.9476253  50.8704723  50.6786762  80.6227959  62.4800465  53.1505452
  80.5060343  63.4245898  53.0484142  79.8020405  62.1774027  53.5391251
  90.5104493  57.2050601  43.9962045  91.3450097  56.7731799  43.8139520
  90.3488836  57.0332615  44.9238939  90.1650386  53.7082714  45.3618384
  90.1099189  53.5426986  44.4206828  89.5396441  54.4158747  45.5180574
  74.9542901  48.9450779  59.1879806  75.6001764  48.4349733  59.6767031
  74.7460052  49.6819460  59.7623232  87.4796293  56.0131626  64.6871947
  88.3487452  56.1872278  64.3258582  87.0003044  56.8326043  64.5647676
  83.4746511  43.2090823  44.9403702  83.4625181  44.1532663  45.0971973
  84.3669933  43.0260969  44.6463164  81.6482473  63.1328727  56.3661380
  82.5509720  63.1652337  56.6827875  81.4219843  62.2029178  56.3807716
  83.4036075  61.8859714  53.0271459  82.4531706  61.8861575  52.9135831
  83.7068561  61.1392448  52.5107494  87.2898631  39.8033600  49.1949639
  86.5231026  39.2492087  49.3406322  87.7009336  39.8755469  50.0563791
  79.2940392  46.0918396  63.2854821  80.1571853  45.7355200  63.4958145
  78.7205802  45.7532290  63.9730225  99.1388769  67.7220252  54.0917222
  99.7767179  67.6026999  53.3880562  99.0209611  68.6701096  54.1505174
  95.9478475  67.6747680  54.0278746  95.6096986  67.5588745  53.1399281
  96.8168243  67.2738845  54.0079752  91.8065291  69.5283156  50.0175637
  91.2430156  69.4373093  49.2491925  91.6917686  68.7083061  50.4978130
  96.4298258  68.8282532  59.9864952  96.4186899  68.4335330  59.1145455
  96.5918897  68.0948604  60.5798723  89.3529722  71.0234348  52.8559858
  90.1451014  70.6825173  52.4406157  89.5926373  71.1329323  53.7762011
  97.3864849  73.1954124  45.3290102  96.7352829  73.7808205  44.9424116
  98.1809212  73.7260319  45.3885140  91.3120476  70.2843261  45.7277236
  92.0851352  69.7372248  45.5890112  91.6645875  71.1487511  45.9391698
  93.1505519  71.6119644  58.9344136  92.8595385  72.5165274  58.8190802
  93.7862503  71.6536171  59.6488205  94.0761726  68.9896492  55.5245495
  94.6725298  68.7652515  54.8102458  94.1336697  68.2481238  56.1270943
  93.6486754  66.4435927  43.3595686  93.9012275  65.9217449  42.5979149
  92.7111313  66.2802073  43.4622370  98.6930037  65.4471706  51.1670430
  99.4793126  65.0291129  50.8160847  98.9568741  66.3517798  51.3352078
  98.8640114  70.8844556  45.8659086  98.2285947  70.9579183  46.5779991
  98.5337521  71.4738155  45.1878166 104.0938464  65.3846939  52.0703408
 104.8263636  64.8146156  52.3041238 103.3377820  64.9968539  52.5109914
  93.3683043  68.3464033  45.5620061  93.2519301  67.6708937  46.2301146
  93.4785303  67.8596407  44.7452214  95.7114584  67.8074181  49.2666751
  95.3472791  67.2804801  49.9779672  96.5681700  67.4172650  49.0933236
 101.6163885  59.0968513  56.5298017 101.2847209  59.9663924  56.3059232
 101.0209498  58.7804797  57.2092047  95.3520071  62.8364080  44.2628099
  95.5194473  63.7044317  44.6298570  95.1617240  62.9991362  43.3389388
  98.1095404  71.2981059  55.9293929  97.8096127  72.2006098  55.8209737
  97.7646464  71.0313242  56.7815082  91.5607886  67.7494856  51.9630634
  90.6358382  67.6171070  52.1708326  91.8092299  68.5289075  52.4600576
 101.5092548  63.8163599  53.6091367 100.6009425  63.7479008  53.3150128
 101.4580144  64.2935544  54.4373192  95.3309292  65.2921738  45.2474766
  95.2108917  65.7378788  46.0860246  94.6361880  65.6407055  44.6888304
  88.9216697  67.3928130  52.7974423  89.0509078  67.6462608  53.7113835
  88.2414148  67.9855838  52.4779078  93.0916184  78.0625379  48.8964897
  93.0140214  79.0133205  48.9753378  92.4877827  77.7171252  49.5539823
  95.5833414  65.2353245  61.5526264  94.8066748  65.7947165  61.5429129
  96.2223977  65.7210028  62.0741134 103.3754194  62.0180038  55.3869241
 102.7328574  62.3112571  54.7409035 102.8709123  61.9032958  56.1922437
 101.0294358  65.7643211  46.0755100 101.9412214  65.9970598  45.9002797
 100.5204005  66.3480255  45.5130179  93.8379786  68.0438698  61.1144231
  94.5794470  68.5823742  60.8379055  93.1316771  68.6704987  61.2715783
  99.3135126  70.1867839  59.7116392  99.7218482  69.7450249  58.9671025
  98.5912387  69.6120466  59.9650585  95.6666196  65.1240445  57.0849949
  96.5127391  65.5479859  57.2284598  95.6064833  64.4674070  57.7788513
  99.6363940  70.7469029  53.4668681  99.0072803  70.9114743  52.7644749
  99.2489602  71.1610639  54.2379645 103.5153172  71.6823467  50.8213045
 102.8304210  72.0622369  50.2710078 103.5997021  72.2918794  51.5544993
  98.8165641  62.7844814  58.7431123  98.5726573  63.5386874  58.2065399
  99.0925571  63.1630161  59.5778370 100.7704104  69.3283426  57.4208389
 100.9820999  69.9715186  56.7442770 100.7233852  68.4945743  56.9530319
  98.3730333  61.9401247  54.3244961  97.5114812  62.2382500  54.6161698
  98.3992767  62.1571646  53.3925993  95.1891902  70.4843437  50.7318766
  95.6530248  70.7631140  49.9423389  94.9248700  69.5826882  50.5491857
  92.0815983  70.0314919  53.6698530  92.6517340  70.4602187  53.0316014
  92.6724095  69.7497504  54.3682715  94.1260788  66.6066590  47.5408332
  94.8284831  67.0587633  48.0082258  93.7941417  65.9650409  48.1688225
  92.5741150  65.1978346  61.9159541  91.9439810  65.8794627  62.1494938
  92.4677238  65.0861428  60.9712679  87.8686122  64.8650142  52.8425465
  87.0785176  65.1207671  52.3665576  88.3597369  65.6798480  52.9477506
 101.8849932  72.2055382  55.5930746 102.7067375  71.8035569  55.3113428
 101.8812335  72.1023616  56.5446862  89.8200867  65.2294722  49.8008942
  89.0232031  65.3413416  50.3192438  89.5926460  65.5681374  48.9349832
  95.6506535  71.7539425  57.7491457  95.7150968  72.2159832  58.5849628
  94.9417459  71.1236790  57.8773766  86.1523825  65.1180633  55.2740456
  86.4031864  66.0027643  55.5398032  86.6883374  64.9385234  54.5015548
  95.3654553  73.4207532  47.6170437  95.2300228  74.2659068  48.0455285
  95.9064365  73.6226810  46.8536371  91.8521892  59.4999112  64.2784792
  91.4588838  58.9465311  64.9532436  92.6688033  59.8109691  64.6691310
  94.7689853  60.9156991  61.8705049  95.5099567  61.5164145  61.7909511
  95.0007776  60.1734629  61.3123091  89.9131191  66.1013359  60.1483278
  89.7984707  65.1998616  60.4490377  89.0575709  66.3477055  59.7968095
  96.9923029  74.0431099  61.7470779  96.5486883  73.2567478  61.4291683
  97.6540243  74.2310249  61.0814670  91.7510150  75.5726901  56.2731457
  92.3017575  75.4443964  55.5008451  90.9121626  75.8721790  55.9226350
  99.0904267  74.3233899  59.7752180  99.0722743  75.1442780  59.2832449
 100.0124187  74.1987974  60.0002321  95.5477321  71.8378028  60.6175689
  96.0805658  71.0766317  60.3874997  95.0191402  71.5451680  61.3599843
  98.7147016  56.9438094  56.1469330  98.3711286  57.8339736  56.0708441
  99.0825979  56.7539752  55.2838915  98.6797299  66.9346705  44.6541765
  98.1643923  67.7051310  44.8930153  98.4074608  66.2611842  45.2774827
  96.2644410  61.7796406  49.7127004  95.4086006  61.3903257  49.5332642
  96.6771362  61.8588367  48.8526789  97.7943557  59.3142749  54.1118564
  97.2908352  59.2772885  53.2986369  98.0874164  60.2235492  54.1715220
  94.0386443  59.3981479  53.1184745  94.9039439  59.2024288  52.7590635
  94.1063952  59.1691831  54.0454102 103.6531573  69.6879060  46.5894939
 102.8761016  69.3490220  46.1450101 104.3323054  69.6931683  45.9149904
  98.4683602  64.8073798  46.4801547  98.1633738  65.1219947  47.3311690
  99.4214044  64.8855217  46.5228880  96.9130034  70.9664021  48.1294501
  96.3851396  70.2316780  47.8167738  96.4117537  71.7438697  47.8834469
 101.8922880  69.1613041  53.2461547 101.2346555  69.8512303  53.3341675
 102.6963279  69.5509473  53.5895533  91.6448762  61.6283687  50.4901112
  92.2192514  61.4058869  49.7574305  92.2319744  61.6972382  51.2429713
 100.7028339  67.5157414  51.2965489 101.2160221  68.1487406  51.7987198
 101.3529563  66.9158610  50.9308849  91.9718349  63.6588148  44.5096997
  91.1355661  63.9962835  44.8306272  91.8323118  63.5237128  43.5724134
  93.9471429  58.5024936  49.2176182  93.2935842  58.1873953  48.5932796
  93.9051904  57.8800676  49.9436004  95.0582634  68.7844231  41.1329474
  94.1509696  68.5533485  41.3320623  95.5553666  67.9881850  41.3203455
  97.9650713  77.4941738  44.0526160  97.2912412  77.7973435  44.6611118
  98.3516535  78.2970819  43.7031617  97.1809170  64.9906870  53.5423829
  96.2631731  65.2121817  53.3845517  97.5969313  65.0653180  52.6835536
  97.9644218  66.3898285  48.6726509  98.7116036  66.9019682  48.3633631
  98.2335807  66.0682338  49.5330903  96.2370868  68.8856826  45.6553464
  95.3282087  68.6015859  45.7525933  96.2665952  69.3055905  44.7956771
 101.4690135  72.4963415  49.4244631 101.0152462  71.6554325  49.4809822
 100.8384102  73.1324814  49.7619411 100.4123055  63.4255401  50.6545299
  99.6745811  62.9132788  50.9855541 100.6649828  62.9855783  49.8428576
  99.9123074  74.3339912  50.3594449 100.2046049  74.8944969  49.6406815
 100.4221695  74.6268473  51.1147608 100.5134682  56.2031653  51.2487068
 100.8193559  55.3429017  50.9612983 101.2387287  56.7949274  51.0486062
  94.7855762  66.4985447  51.7563259  94.8404372  65.5459283  51.6805736
  93.9746964  66.6544886  52.2404557  95.9346956  70.4265570  42.9941542
  95.4966385  69.7101429  42.5347180  96.6757396  70.6541684  42.4326634
  92.7248122  65.1162506  49.5153638  91.9115987  65.4156677  49.9218830
  93.2207116  64.7218195  50.2328120  94.8756700  75.1120263  51.4487903
  94.8332878  75.3381110  50.5196435  95.7919398  74.8783638  51.5973704
  98.3222333  65.5804331  58.3468532  98.6771721  65.8075804  59.2062998
  98.9694465  65.9122708  57.7245787 104.0520070  68.7022767  49.0517861
 103.9137969  68.8924363  48.1239050 103.6956289  69.4642149  49.5085912
  92.2162196  62.6880862  55.1314873  92.8561576  62.5469621  54.4337836
  91.3839727  62.4015375  54.7553475 104.0789450  70.7699294  54.0629132
 104.5125957  70.6774583  54.9112186 104.7921031  70.7456794  53.4249148
  92.9922500  71.9883292  51.2449865  93.7863099  71.4933612  51.0432440
  92.2814193  71.4601155  50.8817571  97.8117345  74.3701388  55.5962233
  97.8654367  74.9392324  56.3639949  96.9432126  74.5403273  55.2316270
  89.3005264  66.1326374  47.3209618  88.3702852  66.0710829  47.5379580
  89.3962736  65.6102327  46.5246259  89.2190813  62.6581187  49.9087860
  89.4797630  63.5726520  49.7997020  90.0407985  62.1905629  50.0584472
  90.6915738  64.0718944  57.0786684  91.3638792  63.8636306  56.4299333
  89.8645525  63.8741030  56.6391916  96.5941310  60.6980885  59.0952345
  95.9469225  61.3970835  59.0016821  97.3642326  61.1317029  59.4628593
 100.0020108  70.9629737  62.1702898  99.8505615  70.7340289  61.2532982
  99.9924788  71.9200338  62.1834243  96.7705445  68.5361650  57.1549165
  97.6997505  68.6872809  56.9818132  96.3496475  68.6245671  56.2997811
  95.5693776  72.5612314  54.9247702  95.4304862  72.1931099  55.7973641
  94.7808373  73.0759954  54.7531660  96.1641928  77.6621411  46.2673239
  96.3393684  77.1909454  47.0818862  95.4774716  78.2887177  46.4954500
  97.1198991  71.9393917  52.3136540  96.7848824  71.8994687  53.2094190
  96.6202937  71.2738633  51.8406950  91.0943235  67.3461547  57.8389121
  90.9563033  66.6141786  58.4400660  92.0048159  67.2570447  57.5573309
 100.0558183  69.2849951  42.5873600  99.4387354  68.5596779  42.4906653
  99.5874672  70.0459312  42.2440674  93.7225536  67.0581506  57.3272801
  94.4325155  66.4174698  57.2859419  93.6794844  67.3094401  58.2498982
 101.7112315  73.9948860  60.2479380 101.6524861  73.3108080  59.5809963
 102.1131833  74.7367850  59.7960006  92.4354470  64.0446724  59.1468440
  91.8991827  63.5937463  59.7990037  91.8471179  64.1792633  58.4038905
  90.7303014  80.8110773  53.0413099  90.9699612  81.4429298  53.7192118
  89.8872210  80.4598813  53.3278458  91.8456729  63.5035376  41.7094904
  90.9686195  63.3824176  41.3457151  92.3214482  62.7121454  41.4573793
 101.7129722  71.9588444  58.4793360 100.8256501  71.6214365  58.6019759
 102.2828273  71.2271475  58.7162125  88.1693591  63.1802732  56.2321435
  88.0851780  62.5728401  55.4971845  87.3476298  63.6711750  56.2330931
  95.2430875  76.6189896  55.4454603  95.1701047  77.4244867  55.9573908
  94.8008269  76.8181862  54.6202624  95.0320655  75.8561666  48.9557425
  94.2488177  76.3983346  49.0495649  95.7313400  76.3735646  49.3551666
  98.3417305  61.6656295  51.5991630  98.8386005  60.9126258  51.2792700
  97.5704287  61.7020612  51.0334839  97.7029559  76.5176730  57.6012762
  98.4157531  77.1524195  57.5288663  97.2119588  76.6140596  56.7852764
  99.4247086  70.4227983  49.1730053  98.4903365  70.5429445  49.0034758
  99.6023754  69.5200449  48.9090063  94.9252274  63.8073678  51.3263315
  94.5550061  63.2544719  52.0144220  95.4211366  63.2031812  50.7738315
 102.8119637  66.2645302  49.7080088 103.2780089  67.0973293  49.6340390
 103.2627138  65.7990283  50.4125346  92.7541472  74.2671173  58.4218333
  93.4550932  74.9007656  58.5747727  92.2836587  74.6085905  57.6613972
 100.8795868  72.6089123  46.7066240 101.1555712  72.4945718  47.6160114
 100.0100367  72.2106608  46.6678413 100.7836300  58.6325889  53.7470989
  99.8699380  58.8630116  53.9153196 101.2129401  58.7164333  54.5985021
 100.5542758  66.8215781  56.2470883  99.9014209  67.0691688  55.5923336
 100.9323138  66.0079919  55.9133360  97.5149932  76.8575474  50.3499053
  97.6972327  76.0397130  50.8126806  98.3382918  77.0743166  49.9123943
  97.8492098  75.7843659  47.6114102  98.3779864  75.2736114  46.9984264
  98.1120317  75.4686189  48.4759635  96.6030331  67.5635592  62.7336920
  95.9270969  67.4629721  63.4039295  97.4257965  67.4074806  63.1972917
  88.3509191  73.8007528  55.3549435  88.9362627  73.0551216  55.4877339
  88.1534029  74.1111485  56.2386099  82.9426845  66.3713129  54.0753878
  82.9810945  65.8376719  54.8690996  82.4367138  65.8448334  53.4564856
  95.3453114  78.8702519  56.9694536  95.8971422  79.0334141  57.7343621
  95.6859308  79.4606957  56.2974561  90.3217608  61.2177669  57.5716421
  90.3858934  62.0792500  57.1593818  90.2584728  60.6051671  56.8388779
  89.7969880  63.2900802  61.2189455  90.4241919  62.9077879  61.8326979
  88.9397799  63.0715004  61.5845147 100.1963989  73.6963777  62.8243190
 100.7403893  74.3093735  62.3298145  99.6150834  74.2543355  63.3410203
  98.4821502  76.8184495  53.9558218  98.3572641  76.0174235  53.4469164
  99.1400593  77.3130688  53.4672188  90.1029670  63.1733227  53.1335358
  89.3816256  63.7869195  52.9942832  90.8922926  63.7090992  53.0552004
 100.5456410  74.6193515  55.5837768  99.5986746  74.4998866  55.5116095
 100.8939183  73.7316013  55.6664030  92.9055983  60.5087654  59.4076010
  93.4290385  60.7549950  60.1702319  92.6868317  61.3407689  58.9879147
  88.3023264  62.7791328  47.2747135  87.9735971  61.8988707  47.0922241
  88.6562635  62.7238997  48.1623524  97.5502843  74.4146231  51.7842120
  97.4027806  73.4862939  51.9649691  98.3756337  74.4366322  51.2999196
  91.4165088  63.0664298  47.6422613  91.7561160  63.5950220  46.9201221
  91.8637208  63.4044704  48.4181179 101.1536965  75.2374790  52.8706993
 102.0783513  75.0317651  52.7331444 100.9852269  74.9891191  53.7796335
  94.1108528  61.4501349  57.0925681  93.7705349  60.6509162  57.4946361
  93.4047535  61.7503060  56.5202514  94.7625000  58.5350661  55.5453004
  95.5851070  58.0611140  55.4231894  95.0063064  59.3141145  56.0451690
  93.4033235  61.5638920  45.8415905  94.1241597  61.9420173  45.3379622
  92.7798539  62.2827797  45.9450883  97.5464358  62.2684069  46.7774238
  97.7627972  63.1508707  46.4763066  97.0658425  61.8770282  46.0479880
  92.2863579  65.2269782  53.3544982  92.1408160  65.5410085  54.2469264
  91.8088783  65.8454682  52.8015881  94.1459962  62.2172330  53.4025872
  94.1321531  61.3213423  53.0658170  94.8632390  62.2242994  54.0364158
  95.9986093  62.6509670  55.4478999  95.7403870  63.5726741  55.4463330
  95.4671133  62.2540105  56.1379463 100.9432281  75.7560457  48.2269085
 101.1169159  75.1906880  47.4742937 101.4361173  76.5561352  48.0448575
  86.7609241  67.7675126  56.2932643  86.2162709  68.5434934  56.4252918
  87.6388591  68.1145931  56.1351765  93.5496858  61.0986710  48.6713442
  93.6712769  60.1703357  48.8704330  93.2598900  61.1125396  47.7591757
  96.4188048  58.7841621  51.8080162  96.4409745  58.8480954  50.8532141
  96.8356107  57.9446129  52.0020668 101.9307454  75.0727222  45.3265983
 102.6258358  75.6933914  45.5453298 102.2730604  74.2222573  45.6018361
  87.5475263  66.8945023  59.1862800  86.8056999  67.0427658  59.7727431
  87.2268007  67.1553288  58.3229550 103.8298877  72.5226927  46.8553314
 104.3550201  72.8614200  46.1302634 103.7421230  71.5873943  46.6716448
  95.4918926  76.4361001  58.9843190  95.8006052  76.1910148  59.8565890
  96.2894408  76.6407639  58.4962061  95.5139538  78.5898911  51.2148567
  95.0744528  78.0975289  51.9081424  96.2647655  78.0471878  50.9740642
  92.9613410  74.1336920  53.2870869  92.3393419  73.4707625  52.9873096
  93.6318277  74.1598052  52.6044516  93.0337937  62.6118708  62.8803375
  93.0826093  63.4880831  62.4981144  93.5760452  62.0696101  62.3075018
 103.5192783  73.1559831  62.1604512 102.7288327  73.1383970  61.6209011
 103.2826138  73.6948125  62.9153548 103.6390658  70.0052297  59.4737240
 103.6888663  69.8402305  60.4152763 103.5304581  69.1379556  59.0835121
 100.9294421  65.9883225  60.7896547 101.8304283  65.8489690  60.4980545
 101.0042395  66.1537680  61.7294724  95.2637226  63.3650080  59.6349733
  94.3940535  63.6583646  59.3632322  95.4996706  63.9490525  60.3556997
 103.3896043  67.5481853  58.1859320 103.8650165  67.7409500  57.3778171
 102.4661609  67.6041039  57.9402703  90.2779550  68.7106021  47.7690398
  90.0325592  67.8068351  47.9670608  90.4475464  68.7123171  46.8269876
  97.9676260  59.5829697  57.1515154  98.4858204  60.3190724  56.8261642
  97.6131392  59.8893690  57.9861913  89.5475197  64.4434378  45.2676559
  88.8544442  64.5178733  44.6116595  89.3026949  63.6794722  45.7898076
  98.2188854  56.0029980  52.6716050  98.4990608  55.3353169  53.2976477
  99.0039461  56.1959075  52.1590714  96.0222322  75.1788973  44.2341077
  95.4496289  75.7979161  43.7811548  96.5955116  75.7288335  44.7680998
 102.0897712  64.4247614  56.4187625 103.0415135  64.5245711  56.4399849
 101.9201163  63.6325882  56.9285710 100.1112092  61.5103197  56.6047026
  99.5162024  61.7908209  55.9093515  99.8261788  61.9997098  57.3763767
  99.2419582  75.4626124  45.3649659 100.1750255  75.3971685  45.5682534
  99.1542795  76.2982390  44.9064191 101.8707599  74.7791994  42.3253606
 101.7921230  74.4451858  43.2189364 102.6917266  75.2713762  42.3245079
  96.4069121  66.5149786  41.5757129  97.3528226  66.3855994  41.6445547
  96.0283366  65.7764448  42.0526557 102.3791005  58.1805792  51.5384021
 102.1815827  57.8720880  52.4227353 102.9890711  58.9067431  51.6681951
  96.2907813  70.5667532  63.0357786  97.2110823  70.7446131  63.2297833
  96.2557396  69.6223578  62.8837485  94.5912038  64.4399763  41.5112014
  93.6843493  64.1432875  41.5874728  94.8688019  64.1429581  40.6446301
  89.2869886  68.4768567  55.6780567  89.5055896  69.4085675  55.6968601
  89.6995660  68.1176541  56.4635371  96.2074104  58.9836652  47.6656256
  95.3974832  58.6383737  48.0411502  96.8958521  58.6744196  48.2543867
  98.1364652  58.0614699  49.2880552  98.6895691  58.4810153  49.9470575
  98.3734738  57.1350447  49.3303508  94.1597751  64.0501773  65.0683316
  94.0594478  64.9996130  64.9995407  93.9419293  63.7220012  64.1959386
  93.3610823  61.2986698  41.6523993  94.2229987  61.6241596  41.9119811
  93.5461167  60.5118194  41.1397059  85.3778238  69.3809037  53.9304182
  84.6841710  68.9662990  53.4174137  86.1251229  69.4229574  53.3337601
 101.5143459  60.1715224  48.7959216 100.9342128  60.8300028  48.4137269
 101.2479392  59.3492569  48.3846634  99.9647025  59.5720282  50.9980537
 100.4646804  59.6836817  50.1894856 100.6082633  59.2681335  51.6381345
  94.0229021  67.4798912  63.8848378  93.5396103  68.2799272  64.0912267
  94.1089960  67.4906856  62.9315822  89.9502359  71.3703446  55.9216812
  90.9045612  71.3387389  55.8546743  89.7514882  70.9094070  56.7367037
  90.5401741  69.9404562  58.4887609  91.3594630  70.4348641  58.5122446
  90.8138549  69.0236530  58.4605177 100.2968337  62.3315315  47.8515565
  99.4094192  62.6164965  47.6335759 100.7122326  62.1709078  47.0042842
 103.6482873  62.3561836  51.5669904 104.4243263  62.8458288  51.8394521
 102.9231007  62.7819890  52.0241773  88.3052588  76.9123066  52.9387009
  88.1707055  76.1523467  52.3725007  87.8884650  77.6363966  52.4715798
  99.4411551  72.0959989  41.9463585 100.1447401  72.3009992  42.5621240
  98.7174199  72.6636751  42.2112668 100.2709361  67.8469851  48.0665855
 100.2144562  68.3038402  47.2273487 100.8237703  67.0860535  47.8888698
 104.0814167  63.6359582  48.8915974 103.8251101  63.2356218  49.7224182
 103.4567035  64.3503376  48.7666114  91.4621713  77.8092383  53.1505452
  91.3454098  78.7537815  53.0484142  90.6414160  77.5065944  53.5391251
 101.3498248  72.5342519  43.9962045 102.1843852  72.1023717  43.8139520
 101.1882591  72.3624532  44.9238939 101.0044140  69.0374632  45.3618384
 100.9492944  68.8718903  44.4206828 100.3790195  69.7450665  45.5180574
  85.7936655  64.2742696  59.1879806  86.4395519  63.7641650  59.6767031
  85.5853806  65.0111378  59.7623232  98.3190047  71.3423544  64.6871947
  99.1881207  71.5164196  64.3258582  97.8396799  72.1617961  64.5647676
  94.3140266  58.5382741  44.9403702  94.3018935  59.4824581  45.0971973
  95.2063687  58.3552886  44.6463164  92.4876228  78.4620645  56.3661380
  93.3903474  78.4944255  56.6827875  92.2613598  77.5321096  56.3807716
  94.2429830  77.2151631  53.0271459  93.2925461  77.2153493  52.9135831
  94.5462316  76.4684366  52.5107494  98.1292385  55.1325517  49.1949639
  97.3624781  54.5784004  49.3406322  98.5403090  55.2047386  50.0563791
  90.1334146  61.4210313  63.2854821  90.9965608  61.0647118  63.4958145
  89.5599557  61.0824208  63.9730225 102.6459045  84.8575074  50.0175637
 102.0823910  84.7665011  49.2491925 102.5311440  84.0374979  50.4978130
 100.1923477  86.3526266  52.8559858 100.9844769  86.0117090  52.4406157
 100.4320127  86.4621241  53.7762011 102.1514231  85.6135179  45.7277236
 102.9245107  85.0664166  45.5890112 102.5039630  86.4779428  45.9391698
 103.9899273  86.9411561  58.9344136 103.6989139  87.8457192  58.8190802
 104.6256258  86.9828089  59.6488205 104.4880509  81.7727845  43.3595686
 104.7406029  81.2509366  42.5979149 103.5505068  81.6093991  43.4622370
 104.2076797  83.6755951  45.5620061 104.0913056  83.0000854  46.2301146
 104.3179057  83.1888325  44.7452214 102.4001640  83.0786774  51.9630634
 101.4752137  82.9462988  52.1708326 102.6486053  83.8580993  52.4600576
  99.7610451  82.7220047  52.7974423  99.8902832  82.9754526  53.7113835
  99.0807902  83.3147755  52.4779078 102.9209738  85.3606837  53.6698530
 103.4911095  85.7894105  53.0316014 103.5117850  85.0789421  54.3682715
 103.4134904  80.5270264  61.9159541 102.7833565  81.2086545  62.1494938
 103.3070992  80.4153346  60.9712679  98.7079877  80.1942060  52.8425465
  97.9178931  80.4499589  52.3665576  99.1991124  81.0090398  52.9477506
 100.6594622  80.5586639  49.8008942  99.8625785  80.6705334  50.3192438
 100.4320214  80.8973292  48.9349832  96.9917580  80.4472551  55.2740456
  97.2425618  81.3319561  55.5398032  97.5277128  80.2677152  54.5015548
 102.6915647  74.8291030  64.2784792 102.2982592  74.2757229  64.9532436
 103.5081787  75.1401608  64.6691310  99.6577705  86.2674888  48.1898362
 100.1702225  87.0618138  48.3403927 100.3100417  85.5701179  48.1231963
 101.4672589  89.3840644  50.2721115 101.6439218  90.3058609  50.0842099
 102.2629423  89.0699064  50.7015495 100.7524946  81.4305276  60.1483278
 100.6378461  80.5290534  60.4490377  99.8969464  81.6768973  59.7968095
  97.6226621  84.5963542  48.9657932  98.4601843  85.0060551  48.7491640
  97.8004889  83.6562985  48.9358126 102.4842516  76.9575605  50.4901112
 103.0586268  76.7350786  49.7574305 103.0713499  77.0264299  51.2429713
 102.8112103  78.9880066  44.5096997 101.9749416  79.3254752  44.8306272
 102.6716873  78.8529046  43.5724134 104.7865184  73.8316854  49.2176182
 104.1329596  73.5165871  48.5932796 104.7445658  73.2092594  49.9436004
  97.6452793  81.9354258  49.6368666  97.4477192  81.3423618  48.9119732
  97.0899457  81.6306468  50.3544605 103.5641876  80.4454424  49.5153638
 102.7509742  80.7448595  49.9218830 104.0600870  80.0510113  50.2328120
 103.0555951  78.0172780  55.1314873 103.6955330  77.8761539  54.4337836
 102.2233481  77.7307293  54.7553475 103.8316255  87.3175210  51.2449865
 104.6256853  86.8225530  51.0432440 103.1207947  86.7893073  50.8817571
 100.1399018  81.4618292  47.3209618  99.2096606  81.4002747  47.5379580
 100.2356490  80.9394244  46.5246259 100.0584567  77.9873104  49.9087860
 100.3191385  78.9018438  49.7997020 100.8801740  77.5197547  50.0584472
 101.5309493  79.4010862  57.0786684 102.2032546  79.1928224  56.4299333
 100.7039279  79.2032948  56.6391916 101.9336990  82.6753465  57.8389121
 101.7956788  81.9433703  58.4400660 102.8441913  82.5862365  57.5573309
 103.2748225  79.3738642  59.1468440 102.7385582  78.9229380  59.7990037
 102.6864933  79.5084551  58.4038905 102.6850484  78.8327293  41.7094904
 101.8079950  78.7116094  41.3457151 103.1608237  78.0413372  41.4573793
  94.2052624  83.6204453  51.8036411  94.8923663  83.3066183  51.2157427
  94.0500752  84.5245818  51.5303663  99.0087346  78.5094650  56.2321435
  98.9245535  77.9020319  55.4971845  98.1870052  79.0003668  56.2330931
  99.1902945  89.1299446  55.3549435  99.7756382  88.3843134  55.4877339
  98.9927784  89.4403403  56.2386099  93.7820600  81.7005046  54.0753878
  93.8204699  81.1668637  54.8690996  93.2760893  81.1740252  53.4564856
 101.1611362  76.5469587  57.5716421 101.2252689  77.4084418  57.1593818
 101.0978482  75.9343589  56.8388779 100.6363635  78.6192719  61.2189455
 101.2635673  78.2369797  61.8326979  99.7791553  78.4006921  61.5845147
  97.4129177  80.4269149  47.1507810  97.7082618  79.5179827  47.0974863
  96.5117213  80.4056888  46.8288812 100.9423424  78.5025145  53.1335358
 100.2210010  79.1161113  52.9942832 101.7316680  79.0382910  53.0552004
 103.7449738  75.8379572  59.4076010 104.2684140  76.0841868  60.1702319
 103.5262071  76.6699606  58.9879147  99.1417019  78.1083246  47.2747135
  98.8129725  77.2280625  47.0922241  99.4956390  78.0530915  48.1623524
 102.2558842  78.3956216  47.6422613 102.5954915  78.9242137  46.9201221
 102.7030963  78.7336622  48.4181179 104.9502283  76.7793267  57.0925681
 104.6099103  75.9801080  57.4946361 104.2441289  77.0794978  56.5202514
 104.2426989  76.8930838  45.8415905 104.9635352  77.2712090  45.3379622
 103.6192293  77.6119714  45.9450883 103.1257334  80.5561700  53.3544982
 102.9801914  80.8702003  54.2469264 102.6482537  81.1746600  52.8015881
  97.6002996  83.0967044  56.2932643  97.0556464  83.8726852  56.4252918
  98.4782346  83.4437849  56.1351765 104.3890612  76.4278628  48.6713442
 104.5106524  75.4995274  48.8704330 104.0992655  76.4417314  47.7591757
  98.3869018  82.2236940  59.1862800  97.6450754  82.3719576  59.7727431
  98.0661762  82.4845206  58.3229550  98.8325631  90.1102369  51.2173195
  99.6583651  89.8106141  50.8371839  98.4819683  89.3409992  51.6662984
 103.8007164  89.4628837  53.2870869 103.1787174  88.7999542  52.9873096
 104.4712031  89.4889969  52.6044516  97.0334236  88.0288696  52.1762129
  96.1966145  87.6010870  51.9946130  97.0057882  88.2221139  53.1132920
 103.8731692  77.9410625  62.8803375 103.9219847  78.8172748  62.4981144
 104.4154206  77.3988018  62.3075018 103.3620671  88.0132761  46.7629329
 103.5108792  88.6968225  46.1096002 104.1687115  87.9937851  47.2778785
 101.1173304  84.0397938  47.7690398 100.8719346  83.1360268  47.9670608
 101.2869219  84.0415089  46.8269876 100.3868952  79.7726296  45.2676559
  99.6938197  79.8470651  44.6116595 100.1420704  79.0086640  45.7898076
  96.3483733  81.0898044  51.9611061  96.0286517  80.2363352  51.6685435
  95.8017161  81.3046622  52.7169028 100.1263640  83.8060485  55.6780567
 100.3449650  84.7377593  55.6968601 100.5389414  83.4468459  56.4635371
 104.9991506  79.3793690  65.0683316 104.8988233  80.3288047  64.9995407
 104.7813048  79.0511929  64.1959386  96.2171993  84.7100955  53.9304182
  95.5235464  84.2954908  53.4174137  96.9644984  84.7521492  53.3337601
 104.8622776  82.8090829  63.8848378 104.3789857  83.6091189  64.0912267
 104.9483715  82.8198774  62.9315822  98.1308735  84.6419209  51.8070197
  98.1079423  84.7406896  50.8552080  98.4409372  85.4884360  52.1287363
 100.7896113  86.6995364  55.9216812 101.7439367  86.6679306  55.8546743
 100.5908637  86.2385988  56.7367037 101.3795495  85.2696480  58.4887609
 102.1988384  85.7640559  58.5122446 101.6532303  84.3528448  58.4605177
  99.1446342  92.2414983  52.9387009  99.0100810  91.4815384  52.3725007
  98.7278404  92.9655883  52.4715798  96.6330410  79.6034614  59.1879806
  97.2789273  79.0933568  59.6767031  96.4247561  80.3403296  59.7623232
 100.9727901  76.7502231  63.2854821 101.8359362  76.3939036  63.4958145
 100.3993311  76.4116126  63.9730225  47.3727997  -3.4994775  39.7658406
  47.6124595  -2.8676250  40.4437424  46.5297193  -3.8506735  40.0523765
  59.2884028   0.5469526  36.7420944  58.7248893   0.4559463  35.9737232
  59.1736423  -0.2730569  37.2223436  56.8348460   2.0420718  39.5805164
  57.6269752   1.7011542  39.1651464  57.0745110   2.1515693  40.5007318
  64.8683587   4.2140494  32.0535409  64.2171567   4.7994574  31.6669422
  65.6627950   4.7446689  32.1130446  58.7939214   1.3029631  32.4522543
  59.5670090   0.7558618  32.3135419  59.1464613   2.1673880  32.6637004
  60.6324257   2.6306013  45.6589442  60.3414123   3.5351644  45.5436109
  61.2681241   2.6722541  46.3733512  65.5914142   2.3167429  42.6539236
  65.2914865   3.2192468  42.5455043  65.2465201   2.0499612  43.5060389
  60.5734922   9.0811749  35.6210204  60.4958951  10.0319574  35.6998684
  59.9696565   8.7357622  36.2785130  62.6710640   1.5029807  37.4564073
  63.1348985   1.7817510  36.6668696  62.4067438   0.6013252  37.2737164
  59.5634721   1.0501289  40.3943836  60.1336078   1.4788557  39.7561321
  60.1542833   0.7683873  41.0928022  63.1325273   2.7725795  44.4736763
  63.1969705   3.2346202  45.3094935  62.4236197   2.1423159  44.6019073
  62.8473291   4.4393902  34.3415743  62.7118965   5.2845438  34.7700591
  63.3883103   4.6413180  33.5781677  56.3002688   1.9569340  34.9143669
  56.8127209   2.7512590  35.0649233  56.9525401   1.2595630  34.8477270
  58.1097573   5.0735096  36.9966422  58.2864201   5.9953061  36.8087406
  58.9054406   4.7593516  37.4260802  64.4741767   5.0617469  48.4716086
  64.0305621   4.2753847  48.1536990  65.1358981   5.2496619  47.8059976
  59.2328888   6.5913270  42.9976764  59.7836313   6.4630333  42.2253758
  58.3940364   6.8908159  42.6471657  66.5723005   5.3420268  46.4997487
  66.5541480   6.1629149  46.0077756  67.4942925   5.2174344  46.7247628
  63.0296059   2.8564398  47.3420995  63.5624396   2.0952686  47.1120303
  62.5010140   2.5638050  48.0845150  54.2651605   0.2857994  35.6903239
  55.1026827   0.6955003  35.4736947  54.4429872  -0.6542564  35.6603433
  64.3948772   1.9850390  34.8539807  63.8670133   1.2503150  34.5413045
  63.8936275   2.7625067  34.6079776  65.4469451   8.5128108  30.7771466
  64.7731150   8.8159805  31.3856424  65.8335273   9.3157188  30.4276923
  67.3941812   5.3526282  37.0839756  67.6864787   5.9131339  36.3652122
  67.9040433   5.6454843  37.8392915  62.3575437   6.1306633  38.1733209
  62.3151616   6.3567479  37.2441741  63.2738136   5.8970007  38.3219010
  60.4741238   3.0069662  37.9695172  61.2681837   2.5119982  37.7677747
  59.7632931   2.4787525  37.6062878  65.2936083   5.3887757  42.3207540
  65.3473105   5.9578694  43.0885255  64.4250864   5.5589642  41.9561577
  63.0512514   3.5798684  41.6493009  62.9123600   3.2117468  42.5218947
  62.2627110   4.0946323  41.4776967  63.6460666   8.6807780  32.9918546
  63.8212422   8.2095823  33.8064168  62.9593454   9.3073546  33.2199806
  64.6017729   2.9580286  39.0381847  64.2667562   2.9181056  39.9339497
  64.1021675   2.2925002  38.5652257  69.1931053   5.0135229  46.9724687
  69.1343599   4.3294449  46.3055270  69.5950571   5.7554219  46.5205313
  58.2121751  11.8297143  39.7658406  58.4518350  12.4615667  40.4437424
  57.3690948  11.4785183  40.0523765  50.8477607  -0.6901095  38.5281718
  51.5348647  -1.0039365  37.9402733  50.6925736   0.2140270  38.2548969
  62.7249613   7.6376265  42.1699910  62.6519785   8.4431237  42.6819214
  62.2827006   7.8368231  41.3447931  62.5139393   6.8748036  35.6802731
  61.7306915   7.4169716  35.7740956  63.2132138   7.3922015  36.0796972
  65.1848297   7.5363100  44.3258068  65.8976269   8.1710564  44.2533970
  64.6938325   7.6326966  43.5098070  60.2360210   5.2857543  45.1463639
  60.9369670   5.9194026  45.2993033  59.7655325   5.6272275  44.3859278
  68.3614606   3.6275493  33.4311546  68.6374450   3.5132087  34.3405420
  67.4919105   3.2292978  33.3923719  64.9968670   7.8761844  37.0744360
  65.1791065   7.0583500  37.5372112  65.8201656   8.0929536  36.6369250
  65.3310836   6.8030029  34.3359408  65.8598602   6.2922483  33.7229570
  65.5939055   6.4872559  35.2004941  55.8327928   4.8193898  42.0794742
  56.4181365   4.0737586  42.2122646  55.6352767   5.1297855  42.9631406
  58.6866584   7.8545145  37.0957184  58.0176959   8.3391273  36.6121224
  58.5479453   8.1014366  38.0100563  50.4245583  -2.6100502  40.7999185
  50.4629683  -3.1436911  41.5936303  49.9185876  -3.1365296  40.1810162
  62.8271852   9.8888889  43.6939843  63.3790160  10.0520510  44.4588928
  63.1678046  10.4793327  43.0219867  67.6782726   4.7150146  49.5488497
  68.2222630   5.3280105  49.0543452  67.0969571   5.2729725  50.0655510
  65.9640239   7.8370864  40.6803525  65.8391379   7.0360604  40.1714470
  66.6219331   8.3317058  40.1917495  68.0275148   5.6379885  42.3083075
  67.0805483   5.5185236  42.2361402  68.3757921   4.7502383  42.3909336
  65.0321581   5.4332601  38.5087427  64.8846544   4.5049308  38.6894997
  65.8575075   5.4552691  38.0244502  68.6355703   6.2561159  39.5952300
  69.5602250   6.0504021  39.4576751  68.4671006   6.0077561  40.5041641
  68.4251019   6.7746827  34.9514391  68.5987897   6.2093249  34.1988244
  68.9179910   7.5747722  34.7693881  54.2427979  -1.2138504  43.0177950
  53.6981447  -0.4378696  43.1498224  55.1207329  -0.8667699  42.8597072
  69.4126192   6.0913591  32.0511290  70.1077096   6.7120284  32.2698604
  69.7549342   5.2408943  32.3263667  62.9737663   7.4547371  45.7088497
  63.2824790   7.2096517  46.5811197  63.7713146   7.6594009  45.2207367
  62.9958276   9.6085280  37.9393874  62.5563266   9.1161659  38.6326730
  63.7466392   9.0658248  37.6985949  55.4750615   5.7996821  37.9418502
  56.3008634   5.5000593  37.5617145  55.1244667   5.0304443  38.3908290
  60.4432148   5.1523289  40.0116175  59.8212157   4.4893994  39.7118403
  61.1137015   5.1784421  39.3289823  53.6759220   3.7183147  38.9007435
  52.8391128   3.2905322  38.7191436  53.6482865   3.9115591  39.8378226
  71.0011521   4.1746201  48.8849818  70.2107065   4.1570339  48.3454318
  70.7644875   4.7134494  49.6398855  60.0045655   3.7027213  33.4874636
  60.1533775   4.3862677  32.8341308  60.8112098   3.6832303  34.0024091
  57.7598288  -0.2707610  34.4935705  57.5144330  -1.1745280  34.6915915
  57.9294202  -0.2690459  33.5515183  63.5041060   6.1975343  30.9586383
  62.9315027   6.8165530  30.5056855  64.0773854   6.7474705  31.4926305
  66.7238320   6.4812493  32.0894965  67.6568993   6.4158055  32.2927841
  66.6361533   7.3168760  31.6309498  69.3526337   5.7978364  29.0498913
  69.2739968   5.4638227  29.9434671  70.1736003   6.2900131  29.0490385
  56.7688624  -0.5045063  42.4025874  56.9874633   0.4272044  42.4213908
  57.1814398  -0.8637089  43.1880678  52.8596976   0.3995407  40.6549489
  52.1660448  -0.0150640  40.1419443  53.6069967   0.4415944  40.0582908
  54.7733719   0.3313661  38.5315504  54.7504407   0.4301348  37.5797387
  55.0834355   1.1778812  38.8532670  57.4321097   2.3889816  42.6462118
  58.3864350   2.3573758  42.5792050  57.2333620   1.9280440  43.4612344
  58.0220479   0.9590932  45.2132916  58.8413368   1.4535011  45.2367753
  58.2957286   0.0422900  45.1850483  55.7871325   7.9309435  39.6632316
  55.6525793   7.1709836  39.0970314  55.3703388   8.6550335  39.1961105
  66.9230288   3.1146359  28.6708891  67.6266138   3.3196361  29.2866547
  66.1992937   3.6823121  28.9357975  58.9440451   8.8278752  39.8750759
  58.8272835   9.7724185  39.7729449  58.1232897   8.5252314  40.2636558
  68.8316986   3.5528888  30.7207351  69.6662590   3.1210087  30.5384826
  68.6701329   3.3810902  31.6484246  65.8008785   2.3609913  51.4117253
  66.6699945   2.5350566  51.0503888  65.3215537   3.1804330  51.2892983
  59.9694965   9.4807014  43.0906687  60.8722212   9.5130625  43.4073182
  59.7432335   8.5507465  43.1053023  61.7248567   8.2338001  39.7516766
  60.7744198   8.2339862  39.6381138  62.0281054   7.4870735  39.2352800
  77.4601261  14.0698539  40.8162528  78.0979671  13.9505287  40.1125868
  77.3422104  15.0179383  40.8750480  74.2690967  14.0225967  40.7524053
  73.9309479  13.9067032  39.8644588  75.1380735  13.6217132  40.7325059
  70.1277783  15.8761444  36.7420944  69.5642648  15.7851381  35.9737232
  70.0130178  15.0561348  37.2223436  74.7510750  15.1760819  46.7110258
  74.7399391  14.7813617  45.8390762  74.9131390  14.4426892  47.3044030
  67.6742215  17.3712635  39.5805164  68.4663507  17.0303460  39.1651464
  67.9138865  17.4807610  40.5007318  75.7077342  19.5432411  32.0535409
  75.0565321  20.1286492  31.6669422  76.5021704  20.0738606  32.1130446
  69.6332969  16.6321549  32.4522543  70.4063845  16.0850536  32.3135419
  69.9858368  17.4965798  32.6637004  71.4718011  17.9597931  45.6589442
  71.1807877  18.8643562  45.5436109  72.1074996  18.0014458  46.3733512
  72.3974218  15.3374779  42.2490802  72.9937790  15.1130802  41.5347765
  72.4549190  14.5959525  42.8516250  71.9699247  12.7914215  30.0840993
  72.2224767  12.2695736  29.3224456  71.0323806  12.6280360  30.1867677
  77.0142529  11.7949993  37.8915736  77.8005619  11.3769416  37.5406153
  77.2781234  12.6996085  38.0597385  77.1852607  17.2322843  32.5904393
  76.5498440  17.3057470  33.3025298  76.8550013  17.8216442  31.9123472
  82.4150956  11.7325226  38.7948715  83.1476128  11.1624443  39.0286544
  81.6590312  11.3446827  39.2355220  71.6895535  14.6942321  32.2865368
  71.5731793  14.0187224  32.9546452  71.7997795  14.2074695  31.4697521
  74.0327076  14.1552468  35.9912057  73.6685283  13.6283089  36.7024979
  74.8894192  13.7650937  35.8178543  73.6732563   9.1842367  30.9873406
  73.8406966  10.0522604  31.3543877  73.4829732   9.3469649  30.0634695
  76.4307896  17.6459346  42.6539236  76.1308619  18.5484385  42.5455043
  76.0858956  17.3791530  43.5060389  69.8820378  14.0973143  38.6875940
  68.9570874  13.9649357  38.8953632  70.1304791  14.8767362  39.1845883
  79.8305040  10.1641887  40.3336673  78.9221917  10.0957295  40.0395434
  79.7792636  10.6413831  41.1618499  73.6521784  11.6400025  31.9720072
  73.5321409  12.0857076  32.8105553  72.9574372  11.9885343  31.4133611
  67.2429189  13.7406417  39.5219730  67.3721570  13.9940896  40.4359141
  66.5626640  14.3334125  39.2024385  71.4128676  24.4103667  35.6210204
  71.3352706  25.3611492  35.6998684  70.8090320  24.0649539  36.2785130
  73.9045906  11.5831532  48.2771571  73.1279240  12.1425452  48.2674435
  74.5436469  12.0688315  48.7986441  81.6966687   8.3658325  42.1114547
  81.0541067   8.6590858  41.4654342  81.1921615   8.2511245  42.9167744
  79.3506850  12.1121498  32.8000407  80.2624706  12.3448885  32.6248104
  78.8416497  12.6958542  32.2375485  72.1592278  14.3916986  47.8389538
  72.9006963  14.9302029  47.5624361  71.4529264  15.0183274  47.9961089
  77.6347618  16.5346126  46.4361699  78.0430974  16.0928536  45.6916331
  76.9124879  15.9598753  46.6895892  73.9878688  11.4718733  43.8095256
  74.8339883  11.8958146  43.9529905  73.9277326  10.8152357  44.5033819
  77.9576433  17.0947317  40.1913988  77.3285295  17.2593031  39.4890056
  77.5702095  17.5088926  40.9624952  81.8365664  18.0301754  37.5458352
  81.1516703  18.4100656  36.9955385  81.9209514  18.6397081  38.2790300
  77.1378133   9.1323101  45.4676430  76.8939065   9.8865162  44.9310705
  77.4138064   9.5108449  46.3023677  79.0916596  15.6761713  44.1453695
  79.3033491  16.3193473  43.4688076  79.0446344  14.8424030  43.6775625
  76.6942825   8.2879534  41.0490267  75.8327304   8.5860788  41.3407005
  76.7205260   8.5049933  40.1171300  73.5104394  16.8321725  37.4564073
  73.9742740  17.1109428  36.6668696  73.2461192  15.9305169  37.2737164
  70.4028475  16.3793206  40.3943836  70.9729833  16.8080475  39.7561321
  70.9936587  16.0975791  41.0928022  72.4473280  12.9544877  34.2653638
  73.1497324  13.4065921  34.7327565  72.1153909  12.3128696  34.8933531
  70.8953642  11.5456634  48.6404848  70.2652303  12.2272915  48.8740244
  70.7889730  11.4339715  47.6957986  66.1898614  11.2128430  39.5670772
  65.3997668  11.4685958  39.0910882  66.6809862  12.0276768  39.6722812
  80.2062424  18.5533669  42.3176053  81.0279868  18.1513856  42.0358734
  80.2024827  18.4501903  43.2692168  68.1413360  11.5773009  36.5254249
  67.3444523  11.6891703  37.0437744  67.9138952  11.9159661  35.6595139
  73.9719027  18.1017712  44.4736763  74.0363460  18.5638119  45.3094935
  73.2629951  17.4715077  44.6019073  64.4736317  11.4658920  41.9985763
  64.7244356  12.3505930  42.2643339  65.0095866  11.2863522  41.2260854
  88.2968417  14.8972417  38.6661024  87.5432125  14.3279815  38.5105029
  88.4315958  14.8635082  39.6131659  73.6867045  19.7685820  34.3415743
  73.5512720  20.6137355  34.7700591  74.2276858  19.9705097  33.5781677
  70.1734385   5.8477400  51.0030099  69.7801330   5.2943598  51.6777743
  70.9900525   6.1587978  51.3936616  67.1396442  17.2861258  34.9143669
  67.6520963  18.0804508  35.0649233  67.7919155  16.5887548  34.8477270
  68.9491327  20.4027014  36.9966422  69.1257955  21.3244979  36.8087406
  69.7448161  20.0885433  37.4260802  73.0902346   7.2635279  48.5950355
  73.8312059   7.8642432  48.5154818  73.3220269   6.5212916  48.0368398
  68.2343684  12.4491646  46.8728585  68.1197199  11.5476903  47.1735684
  67.3788201  12.6955343  46.5213401  75.3135521  20.3909386  48.4716086
  74.8699376  19.6045765  48.1536990  75.9752735  20.5788537  47.8059976
  70.0722643  21.9205188  42.9976764  70.6230068  21.7922251  42.2253758
  69.2334119  22.2200077  42.6471657  77.4116760  20.6712186  46.4997487
  77.3935235  21.4921067  46.0077756  78.3336680  20.5466261  46.7247628
  73.8689814  18.1856316  47.3420995  74.4018150  17.4244604  47.1120303
  73.3403895  17.8929967  48.0845150  65.1045359  15.6149912  35.6903239
  65.9420581  16.0246920  35.4736947  65.2823627  14.6749354  35.6603433
  77.0009791  13.2824993  31.3787072  76.4856415  14.0529597  31.6175459
  76.7287100  12.6090129  32.0020133  74.5856902   8.1274693  36.4372310
  73.7298499   7.7381544  36.2577949  74.9983854   8.2066654  35.5772096
  76.1156049   5.6621037  40.8363870  75.6120845   5.6251172  40.0231675
  76.4086656   6.5713779  40.8960527  72.3598935   5.7459766  39.8430052
  73.2251932   5.5502575  39.4835941  72.4276444   5.5170118  40.7699409
  81.9744065  16.0357347  33.3140246  81.1973508  15.6968507  32.8695408
  82.6535546  16.0409970  32.6395211  76.7896095  11.1552085  33.2046853
  76.4846230  11.4698234  34.0556996  77.7426537  11.2333505  33.2474186
  75.2342526  17.3142308  34.8539807  74.7063888  16.5795068  34.5413045
  74.7330029  18.0916984  34.6079776  80.2135372  15.5091329  39.9706854
  79.5559047  16.1990590  40.0586982  81.0175772  15.8987760  40.3140840
  69.9661254   7.9761974  37.2146419  70.5405006   7.7537156  36.4819612
  70.5532236   8.0450669  37.9675020  79.0240831  13.8635701  38.0210795
  79.5372713  14.4965693  38.5232505  79.6742055  13.2636897  37.6554155
  70.2930841  10.0066435  31.2342304  69.4568153  10.3441122  31.5551579
  70.1535611   9.8715415  30.2969441  72.2683922   4.8503223  35.9421488
  71.6148334   4.5352240  35.3178103  72.2264396   4.2278964  36.6681311
  73.3795127  15.1322518  27.8574780  72.4722188  14.9011772  28.0565929
  73.8766159  14.3360138  28.0448762  76.2863205  23.8420026  30.7771466
  75.6124904  24.1451722  31.3856424  76.6729027  24.6449106  30.4276923
  75.5021662  11.3385157  40.2669136  74.5844223  11.5600104  40.1090824
  75.9181806  11.4131467  39.4080843  76.2856710  12.7376572  35.3971816
  77.0328529  13.2497970  35.0878938  76.5548299  12.4160625  36.2576210
  74.5583360  15.2335113  32.3798770  73.6494579  14.9494146  32.4771240
  74.5878444  15.6534192  31.5202077  79.7902627  18.8441703  36.1489938
  79.3364955  18.0032613  36.2055128  79.1596594  19.4803101  36.4864718
  78.7335547   9.7733689  37.3790605  77.9958304   9.2611075  37.7100848
  78.9862320   9.3334070  36.5673882  78.2335567  20.6818199  37.0839756
  78.5258541  21.2423256  36.3652122  78.7434187  20.9746760  37.8392915
  65.1271530  12.9540627  36.3613973  64.9295930  12.3609988  35.6365039
  64.5718194  12.6492838  37.0789911  73.1068254  12.8463734  38.4808566
  73.1616864  11.8937570  38.4051042  72.2959456  13.0023173  38.9649864
  74.2559448  16.7743857  29.7186849  73.8178878  16.0579716  29.2592486
  74.9969889  17.0019972  29.1571940  71.0460614  11.4640794  36.2398945
  70.2328479  11.7634964  36.6464137  71.5419608  11.0696482  36.9573427
  73.1969192  21.4598550  38.1733209  73.1545371  21.6859397  37.2441741
  74.1131891  21.2261925  38.3219010  76.6434826  11.9282618  45.0713838
  76.9984213  12.1554091  45.9308304  77.2906957  12.2600995  44.4491094
  82.3732563  15.0501054  35.7763167  82.2350461  15.2402650  34.8484357
  82.0168781  15.8120437  36.2331219  70.5374689   9.0359149  41.8560179
  71.1774068   8.8947908  41.1583143  69.7052219   8.7493662  41.4798781
  82.4001942  17.1177581  40.7874439  82.8338449  17.0252870  41.6357493
  83.1133523  17.0935081  40.1494455  71.3134993  18.3361579  37.9695172
  72.1075591  17.8411900  37.7677747  70.6026685  17.8079443  37.6062878
  76.1329837  20.7179675  42.3207540  76.1866859  21.2870611  43.0885255
  75.2644618  20.8881560  41.9561577  67.6217756  12.4804661  34.0454925
  66.6915344  12.4189117  34.2624887  67.7175228  11.9580614  33.2491566
  67.5403305   9.0059474  36.6333166  67.8010122   9.9204807  36.5242327
  68.3620477   8.5383917  36.7829779  69.0128230  10.4197231  43.8031991
  69.6851284  10.2114593  43.1544640  68.1858017  10.2219317  43.3637223
  83.2617492  17.1601282  43.3207324  83.4553382  18.0647092  43.5666599
  83.1618110  16.7008701  44.1545909  74.9153802   7.0459172  45.8197652
  74.2681718   7.7449122  45.7262128  75.6854818   7.4795316  46.1873900
  78.3232600  17.3108024  48.8948205  78.1718107  17.0818576  47.9778289
  78.3137280  18.2678626  48.9079550  75.0917937  14.8839937  43.8794471
  76.0209997  15.0351097  43.7063439  74.6708967  14.9723958  43.0243118
  73.8906269  18.9090601  41.6493009  73.7517354  18.5409386  42.5218947
  73.1020865  19.4238241  41.4776967  74.4854421  24.0099698  32.9918546
  74.6606176  23.5387741  33.8064168  73.7987209  24.6365464  33.2199806
  75.4411484  18.2872204  39.0381847  75.1061316  18.2472974  39.9339497
  74.9415429  17.6216920  38.5652257  69.4155728  13.6939834  44.5634428
  69.2775526  12.9620073  45.1645967  70.3260651  13.6048734  44.2818616
  78.3770675  15.6328239  29.3118906  77.7599846  14.9075067  29.2151959
  77.9087164  16.3937599  28.9685981  72.0438028  13.4059794  44.0518108
  72.7537647  12.7652986  44.0104726  72.0007337  13.6572688  44.9744288
  80.0324807  20.3427147  46.9724687  79.9737353  19.6586367  46.3055270
  80.4344325  21.0846137  46.5205313  70.7566962  10.3925011  45.8713747
  70.2204319   9.9415750  46.5235343  70.1683671  10.5270920  45.1284211
  69.0515506  27.1589061  39.7658406  69.2912104  27.7907585  40.4437424
  68.2084702  26.8077101  40.0523765  70.1669221   9.8513663  28.4340211
  69.2898688   9.7302464  28.0702457  70.6426974   9.0599741  28.1819099
  80.0342214  18.3066731  45.2038667  79.1468993  17.9692653  45.3265065
  80.6040765  17.5749762  45.4407432  61.6871361  14.6390823  38.5281718
  62.3742401  14.3252553  37.9402733  61.5319490  15.5432187  38.2548969
  66.4906084   9.5281019  42.9566742  66.4064272   8.9206689  42.2217152
  65.6688790  10.0190037  42.9576238  73.5643368  22.9668183  42.1699910
  73.4913539  23.7723155  42.6819214  73.1220761  23.1660149  41.3447931
  73.3533147  22.2039953  35.6802731  72.5700669  22.7461633  35.7740956
  74.0525893  22.7213933  36.0796972  76.6629797   8.0134583  38.3236937
  77.1598497   7.2604545  38.0038007  75.8916779   8.0498899  37.7580146
  84.5159555  13.7174948  39.9655228  84.5049431  14.5999664  39.5949161
  83.6476934  13.3646499  39.7709765  76.0242051  22.8655017  44.3258068
  76.7370023  23.5002482  44.2533970  75.5332080  22.9618883  43.5098070
  77.7459578  16.7706270  35.8975360  76.8115857  16.8907732  35.7280064
  77.9236247  15.8678737  35.6335370  73.2464766  10.1551966  38.0508621
  72.8762554   9.6023006  38.7389527  73.7423859   9.5510099  37.4983621
  81.1332129  12.6123589  36.4325394  81.5992582  13.4451581  36.3585697
  81.5839630  12.1468571  37.1370653  71.0753965  20.6149461  45.1463639
  71.7763424  21.2485944  45.2993033  70.6049080  20.9564192  44.3859278
  79.2008361  18.9567410  33.4311546  79.4768205  18.8424005  34.3405420
  78.3312859  18.5584895  33.3923719  78.8755251  13.1694068  42.9716190
  78.2226701  13.4169976  42.3168642  79.2535631  12.3558206  42.6378667
  75.8362425  23.2053761  37.0744360  76.0184819  22.3875417  37.5372112
  76.6595411  23.4221454  36.6369250  76.1704590  22.1321946  34.3359408
  76.6992357  21.6214401  33.7229570  76.4332810  21.8164477  35.2004941
  74.9242824  13.9113879  49.4582227  74.2483461  13.8108008  50.1284602
  75.7470458  13.7553093  49.9218224  66.6721683  20.1485816  42.0794742
  67.2575120  19.4029504  42.2122646  66.4746521  20.4589772  42.9631406
  69.5260338  23.1837063  37.0957184  68.8570713  23.6683191  36.6121224
  69.3873208  23.4306284  38.0100563  61.2639338  12.7191416  40.7999185
  61.3023437  12.1855007  41.5936303  60.7579630  12.1926621  40.1810162
  73.6665607  25.2180807  43.6939843  74.2183915  25.3812428  44.4588928
  74.0071800  25.8085244  43.0219867  68.6430100   7.5655956  44.2961727
  68.7071426   8.4270787  43.8839125  68.5797220   6.9529958  43.5634086
  68.1182372   9.6379089  47.9434762  68.7454411   9.2556166  48.5572286
  67.2610291   9.4193291  48.3090454  78.5176481  20.0442064  49.5488497
  79.0616385  20.6572022  49.0543452  77.9363326  20.6021643  50.0655510
  64.8947915  11.4455518  33.8753116  65.1901356  10.5366196  33.8220170
  63.9935951  11.4243258  33.5534119  76.8033994  23.1662782  40.6803525
  76.6785133  22.3652522  40.1714470  77.4613085  23.6608976  40.1917495
  68.4242162   9.5211515  39.8580665  67.7028748  10.1347482  39.7188138
  69.2135418  10.0569279  39.7797311  78.8668902  20.9671802  42.3083075
  77.9199238  20.8477153  42.2361402  79.2151675  20.0794300  42.3909336
  71.2268476   6.8565941  46.1321317  71.7502877   7.1028238  46.8947626
  71.0080809   7.6885976  45.7124454  66.6235757   9.1269616  33.9992442
  66.2948463   8.2466995  33.8167547  66.9775127   9.0717284  34.8868831
  75.8715336  20.7624518  38.5087427  75.7240298  19.8341226  38.6894997
  76.6968829  20.7844609  38.0244502  69.7377580   9.4142586  34.3667919
  70.0773652   9.9428507  33.6446528  70.1849700   9.7522992  35.1426486
  79.4749457  21.5853077  39.5952300  80.3996005  21.3795939  39.4576751
  79.3064761  21.3369478  40.5041641  72.4321021   7.7979636  43.8170987
  72.0917841   6.9987449  44.2191667  71.7260027   8.0981347  43.2447820
  71.7245727   7.9117207  32.5661212  72.4454090   8.2898460  32.0624929
  71.1011031   8.6306084  32.6696190  75.8676850   8.6162356  33.5019544
  76.0840464   9.4986994  33.2008373  75.3870917   8.2248569  32.7725186
  70.6076071  11.5748069  40.0790289  70.4620652  11.8888372  40.9714570
  70.1301275  12.1932970  39.5261188  72.4672454   8.5650617  40.1271178
  72.4534023   7.6691711  39.7903476  73.1844882   8.5721281  40.7609465
  74.3198585   8.9987958  42.1724306  74.0616363   9.9205028  42.1708636
  73.7883625   8.6018392  42.8624770  79.2644774  22.1038745  34.9514391
  79.4381651  21.5385167  34.1988244  79.7573665  22.9039640  34.7693881
  65.0821733  14.1153414  43.0177950  64.5375202  14.8913222  43.1498224
  65.9601083  14.4624218  42.8597072  71.8709350   7.4464998  35.3958749
  71.9925261   6.5181644  35.5949636  71.5811392   7.4603684  34.4837064
  85.1184165  14.8675168  36.5704691  85.5615311  14.1182493  36.1723814
  84.2410675  14.8585304  36.1878423  80.2519946  21.4205509  32.0511290
  80.9470851  22.0412202  32.2698604  80.5943096  20.5700860  32.3263667
  65.8687755  13.2423310  45.9108107  65.1269491  13.3905945  46.4972737
  65.5480500  13.5031576  45.0474856  82.1511369  18.8705215  33.5798620
  82.6762693  19.2092487  32.8547940  82.0633722  17.9352230  33.3961755
  73.8131418  22.7839288  45.7088497  74.1218544  22.5388435  46.5811197
  74.6106900  22.9885927  45.2207367  73.8352030  24.9377198  37.9393874
  73.3957020  24.4453577  38.6326730  74.5860147  24.3950165  37.6985949
  66.3144369  21.1288739  37.9418502  67.1402389  20.8292511  37.5617145
  65.9638421  20.3596361  38.3908290  71.2825902  20.4815207  40.0116175
  70.6605911  19.8185912  39.7118403  71.9530769  20.5076339  39.3289823
  64.5152974  19.0475065  38.9007435  63.6784882  18.6197240  38.7191436
  64.4876619  19.2407508  39.8378226  71.3550430   8.9596995  49.6048681
  71.4038585   9.8359118  49.2226451  71.8972944   8.4174388  49.0320324
  81.8405275  19.5038118  48.8849818  81.0500819  19.4862257  48.3454318
  81.6038630  20.0426412  49.6398855  81.9603150  16.3530585  46.1982547
  82.0101155  16.1880592  47.1398070  81.8517074  15.4857844  45.8080428
  70.8439409  19.0319130  33.4874636  70.9927529  19.7154595  32.8341308
  71.6505853  19.0124220  34.0024091  79.2506913  12.3361513  47.5141854
  80.1516776  12.1967977  47.2225851  79.3254887  12.5015967  48.4540031
  73.5849718   9.7128367  46.3595040  72.7153028  10.0061933  46.0877628
  73.8209198  10.2968812  47.0802304  83.4621347  18.7727526  46.4424568
  83.1706156  19.1357507  47.2788029  82.8493478  18.0594534  46.2637900
  84.6617030  16.3380406  38.9627139  85.4963921  16.7770210  39.1264699
  84.7976158  15.8619059  38.1435384  81.7108535  13.8960141  44.9104626
  82.1862657  14.0887787  44.1023478  80.7874101  13.9519327  44.6648010
  68.5992042  15.0584308  34.4935705  68.3538084  14.1546638  34.6915915
  68.7687957  15.0601458  33.5515183  76.2888752   5.9307984  43.8760460
  76.8070696   6.6669011  43.5506949  75.9343885   6.2371978  44.7107219
  67.8687690  10.7912665  31.9921866  67.1756935  10.8657020  31.3361902
  67.6239441  10.0273009  32.5143383  74.3434815  21.5267261  30.9586383
  73.7708782  22.1457448  30.5056855  74.9167608  22.0766622  31.4926305
  80.4110204  10.7725901  43.1432932  81.3627627  10.8723998  43.1645156
  80.2413655   9.9804169  43.6531016  78.4324584   7.8581484  43.3292333
  77.8374516   8.1386497  42.6338822  78.1474281   8.3475385  44.1009074
  77.5632074  21.8104411  32.0894965  78.4962748  21.7449973  32.2927841
  77.4755287  22.6460678  31.6309498  80.1920091  21.1270281  29.0498913
  80.1133723  20.7930145  29.9434671  81.0129758  21.6192049  29.0490385
  82.8898282  13.9932020  42.2575232  82.8574602  13.0548021  42.4434915
  83.4998906  14.0716057  41.5241057  74.7281613  12.8628073  28.3002436
  75.6740718  12.7334282  28.3690854  74.3495858  12.1242735  28.7771864
  83.0392771  10.7843064  42.3033515  82.5231819  10.0001521  42.1163444
  83.9232719  10.4561781  42.4680034  88.7074832  15.0548027  41.3981268
  89.4378221  14.7933315  41.9588972  88.0981778  14.3176749  41.4383336
  86.7890129  13.1955890  41.9955720  86.0623293  13.0611855  41.3872211
  86.3737416  13.5032719  42.8012438  74.6120306  16.9145820  49.7603093
  75.5323315  17.0924419  49.9543139  74.5769889  15.9701865  49.6082792
  72.9124530  10.7878050  28.2357321  72.0055986  10.4911163  28.3120035
  73.1900511  10.4907868  27.3691607  63.8302471  12.1084413  38.6856367
  63.5105255  11.2549721  38.3930741  63.2835899  12.3232991  39.4414335
  67.6082378  14.8246854  42.4025874  67.8268388  15.7563962  42.4213908
  68.0208152  14.4654829  43.1880678  72.4810243  10.3980060  51.7928623
  72.3806970  11.3474417  51.7240714  72.2631786  10.0698299  50.9204693
  71.6823315   7.6464985  28.3769300  72.5442479   7.9719883  28.6365117
  71.8673659   6.8596481  27.8642366  63.6990731  15.7287325  40.6549489
  63.0054202  15.3141278  40.1419443  64.4463722  15.7707861  40.0582908
  72.3441514  13.8277199  50.6093684  71.8608595  14.6277559  50.8157573
  72.4302453  13.8385144  49.6561128  65.6127473  15.6605579  38.5315504
  65.5898161  15.7593266  37.5797387  65.9228110  16.5070729  38.8532670
  68.2714851  17.7181734  42.6462118  69.2258105  17.6865676  42.5792050
  68.0727375  17.2572357  43.4612344  68.8614233  16.2882850  45.2132916
  69.6807122  16.7826928  45.2367753  69.1351041  15.3714818  45.1850483
  78.6180829   8.6793602  34.5760871  77.7306684   8.9643253  34.3581066
  79.0334818   8.5187365  33.7288148  81.9695366   8.7040123  38.2915211
  82.7455756   9.1936575  38.5639827  81.2443500   9.1298177  38.7487080
  84.4067924   9.4167742  39.3489151  85.0012415   9.1763478  38.6382459
  84.4794508   8.6974873  39.9762688  66.6265080  23.2601353  39.6632316
  66.4919548  22.5001754  39.0970314  66.2097142  23.9842253  39.1961105
  77.7624043  18.4438277  28.6708891  78.4659893  18.6488279  29.2866547
  77.0386692  19.0115038  28.9357975  78.5921853  14.1948138  34.7911162
  78.5357055  14.6516689  33.9518794  79.1450196  13.4338822  34.6134004
  82.4026659   9.9837870  35.6161281  82.1463593   9.5834505  36.4469489
  81.7779527  10.6981664  35.4911420  86.7138997  12.7233943  38.1232572
  86.1538555  12.7927132  38.8964134  86.1082500  12.5474928  37.4032069
  69.7834206  24.1570670  39.8750759  69.6666590  25.1016103  39.7729449
  68.9626652  23.8544232  40.2636558  79.6710740  18.8820806  30.7207351
  80.5056344  18.4502004  30.5384826  79.5095083  18.7102819  31.6484246
  79.3256632  15.3852919  32.0863691  79.2705436  15.2197191  31.1452135
  78.7002688  16.0928952  32.2425880  64.1149147  10.6220983  45.9125113
  64.7608011  10.1119937  46.4012338  63.9066299  11.3589665  46.4868538
  76.6402540  17.6901831  51.4117253  77.5093699  17.8642483  51.0503888
  76.1609291  18.5096248  51.2892983  72.6352758   4.8861028  31.6649009
  72.6231428   5.8302868  31.8217280  73.5276180   4.7031174  31.3708470
  70.8088720  24.8098932  43.0906687  71.7115967  24.8422542  43.4073182
  70.5826090  23.8799383  43.1053023  72.5642322  23.5629919  39.7516766
  71.6137953  23.5631780  39.6381138  72.8674808  22.8162653  39.2352800
  68.4546638   7.7688601  50.0100127  69.3178100   7.4125405  50.2203452
  67.8812049   7.4302495  50.6975531  88.2995015  29.3990457  40.8162528
  88.9373425  29.2797204  40.1125868  88.1815858  30.3471301  40.8750480
  85.1084722  29.3517885  40.7524053  84.7703233  29.2358950  39.8644588
  85.9774490  28.9509050  40.7325059  80.9671537  31.2053361  36.7420944
  80.4036402  31.1143298  35.9737232  80.8523932  30.3853266  37.2223436
  85.5904505  30.5052737  46.7110258  85.5793145  30.1105535  45.8390762
  85.7525144  29.7718809  47.3044030  78.5135969  32.7004553  39.5805164
  79.3057261  32.3595378  39.1651464  78.7532619  32.8099528  40.5007318
  86.5471096  34.8724329  32.0535409  85.8959076  35.4578410  31.6669422
  87.3415459  35.4030524  32.1130446  80.4726723  31.9613466  32.4522543
  81.2457599  31.4142453  32.3135419  80.8252122  32.8257716  32.6637004
  82.3111766  33.2889849  45.6589442  82.0201632  34.1935479  45.5436109
  82.9468750  33.3306376  46.3733512  83.2367973  30.6666697  42.2490802
  83.8331545  30.4422719  41.5347765  83.2942944  29.9251443  42.8516250
  82.8093001  28.1206132  30.0840993  83.0618522  27.5987654  29.3224456
  81.8717560  27.9572278  30.1867677  87.8536284  27.1241911  37.8915736
  88.6399373  26.7061334  37.5406153  88.1174988  28.0288003  38.0597385
  88.0246361  32.5614761  32.5904393  87.3892194  32.6349388  33.3025298
  87.6943768  33.1508360  31.9123472  93.2544711  27.0617144  38.7948715
  93.9869883  26.4916361  39.0286544  92.4984067  26.6738744  39.2355220
  82.5289290  30.0234238  32.2865368  82.4125548  29.3479142  32.9546452
  82.6391550  29.5366612  31.4697521  84.8720831  29.4844385  35.9912057
  84.5079038  28.9575006  36.7024979  85.7287947  29.0942854  35.8178543
  90.7770131  20.7738718  43.2543323  90.4453456  21.6434129  43.0304538
  90.1815745  20.4575002  43.9337354  84.5126318  24.5134285  30.9873406
  84.6800720  25.3814522  31.3543877  84.3223487  24.6761567  30.0634695
  87.2701651  32.9751264  42.6539236  86.9702374  33.8776303  42.5455043
  86.9252710  32.7083447  43.5060389  80.7214132  29.4265061  38.6875940
  79.7964629  29.2941275  38.8953632  80.9698546  30.2059280  39.1845883
  90.6698795  25.4933804  40.3336673  89.7615672  25.4249213  40.0395434
  90.6186390  25.9705749  41.1618499  84.4915539  26.9691943  31.9720072
  84.3715164  27.4148993  32.8105553  83.7968127  27.3177260  31.4133611
  78.0822943  29.0698334  39.5219730  78.2115325  29.3232813  40.4359141
  77.4020395  29.6626042  39.2024385  84.7439660  26.9123450  48.2771571
  83.9672994  27.4717370  48.2674435  85.3830223  27.3980233  48.7986441
  92.5360441  23.6950243  42.1114547  91.8934821  23.9882776  41.4654342
  92.0315370  23.5803163  42.9167744  90.1900605  27.4413416  32.8000407
  91.1018461  27.6740803  32.6248104  89.6810252  28.0250460  32.2375485
  82.9986033  29.7208903  47.8389538  83.7400717  30.2593947  47.5624361
  82.2923018  30.3475192  47.9961089  88.4741372  31.8638044  46.4361699
  88.8824728  31.4220454  45.6916331  87.7518634  31.2890671  46.6895892
  84.8272442  26.8010650  43.8095256  85.6733638  27.2250064  43.9529905
  84.7671080  26.1444275  44.5033819  88.7970187  32.4239234  40.1913988
  88.1679049  32.5884948  39.4890056  88.4095849  32.8380844  40.9624952
  92.6759419  33.3593672  37.5458352  91.9910457  33.7392573  36.9955385
  92.7603268  33.9688999  38.2790300  87.9771888  24.4615019  45.4676430
  87.7332820  25.2157079  44.9310705  88.2531818  24.8400366  46.3023677
  89.9310350  31.0053631  44.1453695  90.1427246  31.6485391  43.4688076
  89.8840099  30.1715948  43.6775625  87.5336579  23.6171452  41.0490267
  86.6721058  23.9152705  41.3407005  87.5599014  23.8341851  40.1171300
  84.3498149  32.1613642  37.4564073  84.8136494  32.4401345  36.6668696
  84.0854947  31.2597087  37.2737164  81.2422230  31.7085124  40.3943836
  81.8123587  32.1372392  39.7561321  81.8330342  31.4267709  41.0928022
  83.2867035  28.2836795  34.2653638  83.9891078  28.7357838  34.7327565
  82.9547663  27.6420614  34.8933531  81.7347396  26.8748551  48.6404848
  81.1046057  27.5564832  48.8740244  81.6283484  26.7631633  47.6957986
  77.0292369  26.5420347  39.5670772  76.2391423  26.7977876  39.0910882
  77.5203616  27.3568685  39.6722812  91.0456178  33.8825587  42.3176053
  91.8673622  33.4805774  42.0358734  91.0418581  33.7793821  43.2692168
  78.9807114  26.9064927  36.5254249  78.1838278  27.0183621  37.0437744
  78.7532706  27.2451579  35.6595139  84.8112782  33.4309630  44.4736763
  84.8757214  33.8930037  45.3094935  84.1023706  32.8006995  44.6019073
  75.3130072  26.7950838  41.9985763  75.5638110  27.6797848  42.2643339
  75.8489620  26.6155439  41.2260854  99.1362171  30.2264335  38.6661024
  98.3825880  29.6571733  38.5105029  99.2709713  30.1927000  39.6131659
  84.5260800  35.0977737  34.3415743  84.3906474  35.9429273  34.7700591
  85.0670612  35.2997015  33.5781677  81.0128139  21.1769317  51.0030099
  80.6195085  20.6235516  51.6777743  81.8294280  21.4879896  51.3936616
  77.9790197  32.6153175  34.9143669  78.4914718  33.4096426  35.0649233
  78.6312910  31.9179466  34.8477270  83.9296100  22.5927196  48.5950355
  84.6705814  23.1934349  48.5154818  84.1614023  21.8504834  48.0368398
  79.0737438  27.7783564  46.8728585  78.9590953  26.8768821  47.1735684
  78.2181956  28.0247260  46.5213401  86.1529276  35.7201304  48.4716086
  85.7093130  34.9337682  48.1536990  86.8146490  35.9080454  47.8059976
  80.9116397  37.2497105  42.9976764  81.4623822  37.1214169  42.2253758
  80.0727873  37.5491994  42.6471657  88.2510514  36.0004104  46.4997487
  88.2328989  36.8212985  46.0077756  89.1730434  35.8758179  46.7247628
  84.7083568  33.5148233  47.3420995  85.2411905  32.7536521  47.1120303
  84.1797649  33.2221885  48.0845150  87.8753263  18.6208299  42.8714637
  87.5317533  19.5109941  42.7953748  88.2432226  18.4309957  42.0084222
  75.9439114  30.9441830  35.6903239  76.7814336  31.3538838  35.4736947
  76.1217381  30.0041272  35.6603433  87.8403546  28.6116910  31.3787072
  87.3250169  29.3821515  31.6175459  87.5680854  27.9382046  32.0020133
  85.4250657  23.4566611  36.4372310  84.5692253  23.0673462  36.2577949
  85.8377609  23.5358572  35.5772096  86.9549804  20.9912954  40.8363870
  86.4514599  20.9543090  40.0231675  87.2480410  21.9005697  40.8960527
  83.1992689  21.0751684  39.8430052  84.0645686  20.8794493  39.4835941
  83.2670198  20.8462036  40.7699409  92.8137820  31.3649265  33.3140246
  92.0367263  31.0260424  32.8695408  93.4929301  31.3701888  32.6395211
  87.6289849  26.4844002  33.2046853  87.3239985  26.7990152  34.0556996
  88.5820291  26.5625422  33.2474186  86.0736281  32.6434226  34.8539807
  85.5457642  31.9086985  34.5413045  85.5723784  33.4208902  34.6079776
  91.0529127  30.8383246  39.9706854  90.3952801  31.5282508  40.0586982
  91.8569526  31.2279678  40.3140840  80.8055008  23.3053892  37.2146419
  81.3798760  23.0829074  36.4819612  81.3925991  23.3742587  37.9675020
  89.8634586  29.1927619  38.0210795  90.3766467  29.8257611  38.5232505
  90.5135810  28.5928814  37.6554155  81.1324596  25.3358353  31.2342304
  80.2961908  25.6733040  31.5551579  80.9929365  25.2007333  30.2969441
  83.1077676  20.1795141  35.9421488  82.4542089  19.8644158  35.3178103
  83.0658150  19.5570881  36.6681311  84.2188881  30.4614436  27.8574780
  83.3115943  30.2303689  28.0565929  84.7159913  29.6652055  28.0448762
  87.1256960  39.1711943  30.7771466  86.4518659  39.4743640  31.3856424
  87.5122782  39.9741024  30.4276923  86.3415417  26.6677074  40.2669136
  85.4237978  26.8892021  40.1090824  86.7575560  26.7423385  39.4080843
  87.1250464  28.0668490  35.3971816  87.8722283  28.5789887  35.0878938
  87.3942054  27.7452543  36.2576210  85.3977114  30.5627031  32.3798770
  84.4888334  30.2786064  32.4771240  85.4272198  30.9826109  31.5202077
  90.6296382  34.1733620  36.1489938  90.1758709  33.3324530  36.2055128
  89.9990349  34.8095019  36.4864718  89.5729301  25.1025606  37.3790605
  88.8352058  24.5902993  37.7100848  89.8256075  24.6625988  36.5673882
  89.0729321  36.0110117  37.0839756  89.3652296  36.5715174  36.3652122
  89.5827942  36.3038678  37.8392915  89.6740929  17.8801858  37.9732375
  89.9799806  17.0199222  37.6858290  90.3993534  18.4719479  37.7731369
  75.9665285  28.2832545  36.3613973  75.7689685  27.6901906  35.6365039
  75.4111949  27.9784755  37.0789911  83.9462009  28.1755651  38.4808566
  84.0010618  27.2229488  38.4051042  83.1353211  28.3315091  38.9649864
  85.0953202  32.1035775  29.7186849  84.6572632  31.3871633  29.2592486
  85.8363643  32.3311889  29.1571940  81.8854368  26.7932711  36.2398945
  81.0722234  27.0926882  36.6464137  82.3813363  26.3988400  36.9573427
  84.0362946  36.7890468  38.1733209  83.9939125  37.0151314  37.2441741
  84.9525645  36.5553843  38.3219010  87.4828580  27.2574536  45.0713838
  87.8377968  27.4846009  45.9308304  88.1300711  27.5892912  44.4491094
  93.2126317  30.3792972  35.7763167  93.0744216  30.5694568  34.8484357
  92.8562536  31.1412354  36.2331219  81.3768443  24.3651067  41.8560179
  82.0167823  24.2239826  41.1583143  80.5445974  24.0785580  41.4798781
  93.2395697  32.4469499  40.7874439  93.6732203  32.3544788  41.6357493
  93.9527277  32.4226999  40.1494455  82.1528747  33.6653497  37.9695172
  82.9469346  33.1703817  37.7677747  81.4420439  33.1371360  37.6062878
  86.9723592  36.0471593  42.3207540  87.0260614  36.6162529  43.0885255
  86.1038373  36.2173478  41.9561577  78.4611511  27.8096579  34.0454925
  77.5309099  27.7481034  34.2624887  78.5568983  27.2872532  33.2491566
  78.3797060  24.3351392  36.6333166  78.6403877  25.2496725  36.5242327
  79.2014232  23.8675834  36.7829779  79.8521985  25.7489149  43.8031991
  80.5245038  25.5406511  43.1544640  79.0251771  25.5511235  43.3637223
  94.1011246  32.4893199  43.3207324  94.2947136  33.3939010  43.5666599
  94.0011864  32.0300618  44.1545909  85.7547557  22.3751090  45.8197652
  85.1075472  23.0741039  45.7262128  86.5248572  22.8087234  46.1873900
  89.1626355  32.6399942  48.8948205  89.0111861  32.4110494  47.9778289
  89.1531034  33.5970543  48.9079550  85.9311691  30.2131855  43.8794471
  86.8603751  30.3643014  43.7063439  85.5102721  30.3015876  43.0243118
  84.7300023  34.2382519  41.6493009  84.5911109  33.8701304  42.5218947
  83.9414619  34.7530159  41.4776967  85.3248175  39.3391616  32.9918546
  85.4999931  38.8679659  33.8064168  84.6380963  39.9657382  33.2199806
  86.2805238  33.6164122  39.0381847  85.9455071  33.5764892  39.9339497
  85.7809184  32.9508838  38.5652257  80.2549482  29.0231752  44.5634428
  80.1169280  28.2911991  45.1645967  81.1654406  28.9340652  44.2818616
  89.2164430  30.9620156  29.3118906  88.5993601  30.2366984  29.2151959
  88.7480918  31.7229516  28.9685981  82.8831783  28.7351711  44.0518108
  83.5931401  28.0944903  44.0104726  82.8401091  28.9864606  44.9744288
  90.8718562  35.6719065  46.9724687  90.8131108  34.9878285  46.3055270
  91.2738080  36.4138055  46.5205313  81.5960717  25.7216929  45.8713747
  81.0598074  25.2707668  46.5235343  81.0077425  25.8562838  45.1284211
  81.0062976  25.1805581  28.4340211  80.1292442  25.0594381  28.0702457
  81.4820729  24.3891659  28.1819099  90.8735969  33.6358648  45.2038667
  89.9862748  33.2984570  45.3265065  91.4434520  32.9041680  45.4407432
  72.5265116  29.9682740  38.5281718  73.2136156  29.6544470  37.9402733
  72.3713245  30.8724105  38.2548969  77.3299838  24.8572937  42.9566742
  77.2458027  24.2498606  42.2217152  76.5082544  25.3481955  42.9576238
  84.4037122  38.2960101  42.1699910  84.3307294  39.1015072  42.6819214
  83.9614515  38.4952067  41.3447931  84.1926902  37.5331871  35.6802731
  83.4094424  38.0753551  35.7740956  84.8919647  38.0505851  36.0796972
  87.5023552  23.3426500  38.3236937  87.9992251  22.5896463  38.0038007
  86.7310533  23.3790817  37.7580146  95.3553309  29.0466866  39.9655228
  95.3443186  29.9291581  39.5949161  94.4870689  28.6938417  39.7709765
  86.8635806  38.1946935  44.3258068  87.5763778  38.8294400  44.2533970
  86.3725834  38.2910801  43.5098070  88.5853333  32.0998188  35.8975360
  87.6509611  32.2199650  35.7280064  88.7630001  31.1970654  35.6335370
  84.0858521  25.4843883  38.0508621  83.7156308  24.9314924  38.7389527
  84.5817613  24.8802017  37.4983621  91.9725884  27.9415507  36.4325394
  92.4386336  28.7743498  36.3585697  92.4233384  27.4760488  37.1370653
  81.9147719  35.9441378  45.1463639  82.6157179  36.5777861  45.2993033
  81.4442834  36.2856110  44.3859278  90.0402115  34.2859328  33.4311546
  90.3161959  34.1715923  34.3405420  89.1706614  33.8876813  33.3923719
  89.9442547  20.3096094  40.4716296  89.0305627  20.5400321  40.6398502
  90.3735648  20.3934538  41.3230328  89.7149005  28.4985986  42.9716190
  89.0620455  28.7461893  42.3168642  90.0929385  27.6850124  42.6378667
  86.6756179  38.5345679  37.0744360  86.8578574  37.7167335  37.5372112
  87.4989165  38.7513371  36.6369250  87.0098345  37.4613864  34.3359408
  87.5386111  36.9506319  33.7229570  87.2726564  37.1456394  35.2004941
  85.7636578  29.2405797  49.4582227  85.0877215  29.1399926  50.1284602
  86.5864212  29.0845011  49.9218224  72.1033092  28.0483334  40.7999185
  72.1417192  27.5146924  41.5936303  71.5973385  27.5218539  40.1810162
  84.5059361  40.5472724  43.6939843  85.0577669  40.7104346  44.4588928
  84.8465555  41.1377162  43.0219867  79.4823854  22.8947874  44.2961727
  79.5465181  23.7562705  43.8839125  79.4190975  22.2821876  43.5634086
  78.9576127  24.9671007  47.9434762  79.5848166  24.5848084  48.5572286
  78.1004046  24.7485209  48.3090454  89.3570235  35.3733982  49.5488497
  89.9010139  35.9863940  49.0543452  88.7757080  35.9313560  50.0655510
  75.7341670  26.7747436  33.8753116  76.0295111  25.8658114  33.8220170
  74.8329705  26.7535175  33.5534119  87.6427748  38.4954700  40.6803525
  87.5178888  37.6944440  40.1714470  88.3006840  38.9900893  40.1917495
  79.2635917  24.8503432  39.8580665  78.5422502  25.4639400  39.7188138
  80.0529172  25.3861197  39.7797311  89.7062657  36.2963720  42.3083075
  88.7592992  36.1769071  42.2361402  90.0545430  35.4086218  42.3909336
  82.0662230  22.1857859  46.1321317  82.5896632  22.4320155  46.8947626
  81.8474563  23.0177894  45.7124454  77.4629511  24.4561533  33.9992442
  77.1342217  23.5758912  33.8167547  77.8168882  24.4009202  34.8868831
  86.7109090  36.0916436  38.5087427  86.5634053  35.1633144  38.6894997
  87.5362584  36.1136527  38.0244502  80.5771334  24.7434503  34.3667919
  80.9167407  25.2720424  33.6446528  81.0243455  25.0814909  35.1426486
  90.3143212  36.9144995  39.5952300  91.2389759  36.7087856  39.4576751
  90.1458515  36.6661396  40.5041641  83.2714775  23.1271554  43.8170987
  82.9311596  22.3279367  44.2191667  82.5653781  23.4273265  43.2447820
  83.9231247  20.2120866  42.2698310  84.7457316  19.7381345  42.1477201
  84.1669311  20.9911350  42.7696997  82.5639482  23.2409125  32.5661212
  83.2847844  23.6190378  32.0624929  81.9404786  23.9598002  32.6696190
  86.7070604  23.9454274  33.5019544  86.9234219  24.8278912  33.2008373
  86.2264672  23.5540487  32.7725186  81.4469826  26.9039987  40.0790289
  81.3014407  27.2180290  40.9714570  80.9695029  27.5224887  39.5261188
  83.3066209  23.8942535  40.1271178  83.2927777  22.9983628  39.7903476
  84.0238637  23.9013199  40.7609465  85.1592339  24.3279875  42.1724306
  84.9010117  25.2496946  42.1708636  84.6277380  23.9310310  42.8624770
  90.1038528  37.4330662  34.9514391  90.2775406  36.8677085  34.1988244
  90.5967419  38.2331557  34.7693881  75.9215488  29.4445331  43.0177950
  75.3768956  30.2205139  43.1498224  76.7994838  29.7916136  42.8597072
  82.7103105  22.7756915  35.3958749  82.8319016  21.8473561  35.5949636
  82.4205147  22.7895601  34.4837064  85.5794295  20.4611826  38.5325468
  85.6015992  20.5251159  37.5777448  85.9962354  19.6216334  38.7265975
  95.9577919  30.1967085  36.5704691  96.4009065  29.4474410  36.1723814
  95.0804430  30.1877222  36.1878423  91.0913701  36.7497427  32.0511290
  91.7864605  37.3704119  32.2698604  91.4336851  35.8992778  32.3263667
  76.7081510  28.5715228  45.9108107  75.9663246  28.7197863  46.4972737
  76.3874254  28.8323493  45.0474856  92.9905124  34.1997132  33.5798620
  93.5156448  34.5384405  32.8547940  92.9027476  33.2644148  33.3961755
  84.6525172  38.1131206  45.7088497  84.9612299  37.8680353  46.5811197
  85.4500654  38.3177844  45.2207367  82.1219657  35.8107125  40.0116175
  81.4999666  35.1477830  39.7118403  82.7924524  35.8368256  39.3289823
  75.3546729  34.3766983  38.9007435  74.5178637  33.9489157  38.7191436
  75.3270374  34.5699426  39.8378226  82.1944184  24.2888913  49.6048681
  82.2432340  25.1651035  49.2226451  82.7366698  23.7466306  49.0320324
  92.6799030  34.8330036  48.8849818  91.8894574  34.8154175  48.3454318
  92.4432384  35.3718330  49.6398855  92.7996905  31.6822502  46.1982547
  92.8494910  31.5172510  47.1398070  92.6910828  30.8149761  45.8080428
  81.6833164  34.3611048  33.4874636  81.8321284  35.0446512  32.8341308
  82.4899607  34.3416138  34.0024091  90.0900667  27.6653430  47.5141854
  90.9910530  27.5259895  47.2225851  90.1648642  27.8307885  48.4540031
  84.4243473  25.0420285  46.3595040  83.5546782  25.3353851  46.0877628
  84.6602953  25.6260730  47.0802304  94.3015102  34.1019444  46.4424568
  94.0099910  34.4649424  47.2788029  93.6887233  33.3886452  46.2637900
  95.5010784  31.6672324  38.9627139  96.3357675  32.1062128  39.1264699
  95.6369913  31.1910977  38.1435384  92.5502290  29.2252058  44.9104626
  93.0256412  29.4179705  44.1023478  91.6267855  29.2811244  44.6648010
  79.4385797  30.3876226  34.4935705  79.1931838  29.4838556  34.6915915
  79.6081711  30.3893376  33.5515183  87.1282506  21.2599902  43.8760460
  87.6464450  21.9960929  43.5506949  86.7737639  21.5663895  44.7107219
  78.7081444  26.1204583  31.9921866  78.0150689  26.1948938  31.3361902
  78.4633196  25.3564927  32.5143383  87.3795101  17.6800184  39.3961357
  87.6596854  17.0123374  40.0221783  88.1645708  17.8729280  38.8836021
  85.1828569  36.8559178  30.9586383  84.6102536  37.4749366  30.5056855
  85.7561363  37.4058540  31.4926305  91.2503959  26.1017818  43.1432932
  92.2021382  26.2015916  43.1645156  91.0807409  25.3096087  43.6531016
  89.2718338  23.1873402  43.3292333  88.6768271  23.4678414  42.6338822
  88.9868035  23.6767303  44.1009074  88.4025829  37.1396329  32.0894965
  89.3356502  37.0741890  32.2927841  88.3149042  37.9752595  31.6309498
  91.0313846  36.4562199  29.0498913  90.9527477  36.1222062  29.9434671
  91.8523512  36.9483967  29.0490385  93.7292037  29.3223938  42.2575232
  93.6968357  28.3839939  42.4434915  94.3392660  29.4007975  41.5241057
  85.5675368  28.1919991  28.3002436  86.5134472  28.0626199  28.3690854
  85.1889613  27.4534653  28.7771864  93.8786525  26.1134982  42.3033515
  93.3625574  25.3293438  42.1163444  94.7626474  25.7853698  42.4680034
  91.5397252  19.8575997  38.2629327  91.3422073  19.5491085  39.1472659
  92.1496958  20.5837636  38.3927257  99.5468587  30.3839945  41.3981268
 100.2771975  30.1225233  41.9588972  98.9375532  29.6468667  41.4383336
  97.6283884  28.5247808  41.9955720  96.9017047  28.3903773  41.3872211
  97.2131171  28.8324636  42.8012438  85.4514060  32.2437737  49.7603093
  86.3717070  32.4216336  49.9543139  85.4163643  31.2993783  49.6082792
  83.7518285  26.1169968  28.2357321  82.8449740  25.8203080  28.3120035
  84.0294266  25.8199786  27.3691607  74.6696225  27.4376331  38.6856367
  74.3499009  26.5841639  38.3930741  74.1229653  27.6524909  39.4414335
  78.4476133  30.1538772  42.4025874  78.6662142  31.0855880  42.4213908
  78.8601906  29.7946746  43.1880678  85.3680350  20.6606857  34.3901562
  84.5581079  20.3153942  34.7656808  86.0564767  20.3514401  34.9789174
  87.2970899  19.7384904  36.0125859  87.8501937  20.1580357  36.6715882
  87.5340985  18.8120652  36.0548815  83.3203998  25.7271978  51.7928623
  83.2200725  26.6766335  51.7240714  83.1025540  25.3990217  50.9204693
  82.5217069  22.9756903  28.3769300  83.3836233  23.3011801  28.6365117
  82.7067414  22.1888399  27.8642366  74.5384485  31.0579242  40.6549489
  73.8447957  30.6433195  40.1419443  75.2857476  31.0999779  40.0582908
  90.6749706  21.8485429  35.5204523  90.0948375  22.5070233  35.1382576
  90.4085639  21.0262774  35.1091941  89.1253272  21.2490487  37.7225843
  89.6253051  21.3607021  36.9140162  89.7688880  20.9451540  38.3626652
  83.1835268  29.1569117  50.6093684  82.7002350  29.9569477  50.8157573
  83.2696207  29.1677061  49.6561128  76.4521228  30.9897496  38.5315504
  76.4291916  31.0885183  37.5797387  76.7621864  31.8362647  38.8532670
  79.1108606  33.0473651  42.6462118  80.0651859  33.0157594  42.5792050
  78.9121129  32.5864275  43.4612344  79.7007988  31.6174767  45.2132916
  80.5200877  32.1118846  45.2367753  79.9744795  30.7006735  45.1850483
  89.4574584  24.0085520  34.5760871  88.5700439  24.2935170  34.3581066
  89.8728573  23.8479283  33.7288148  92.8089120  24.0332041  38.2915211
  93.5849510  24.5228493  38.5639827  92.0837254  24.4590095  38.7487080
  95.2461679  24.7459660  39.3489151  95.8406169  24.5055396  38.6382459
  95.3188262  24.0266790  39.9762688  88.6017797  33.7730194  28.6708891
  89.3053647  33.9780197  29.2866547  87.8780446  34.3406956  28.9357975
  89.4315608  29.5240056  34.7911162  89.3750809  29.9808607  33.9518794
  89.9843950  28.7630740  34.6134004  93.2420414  25.3129787  35.6161281
  92.9857348  24.9126423  36.4469489  92.6173282  26.0273581  35.4911420
  97.5532751  28.0525861  38.1232572  96.9932309  28.1219050  38.8964134
  96.9476255  27.8766845  37.4032069  90.5104495  34.2112723  30.7207351
  91.3450099  33.7793922  30.5384826  90.3488838  34.0394737  31.6484246
  90.1650387  30.7144837  32.0863691  90.1099191  30.5489108  31.1452135
  89.5396442  31.4220870  32.2425880  74.9542902  25.9512901  45.9125113
  75.6001766  25.4411855  46.4012338  74.7460053  26.6881583  46.4868538
  87.4796294  33.0193749  51.4117253  88.3487454  33.1934401  51.0503888
  87.0003046  33.8388165  51.2892983  83.4746512  20.2152946  31.6649009
  83.4625182  21.1594786  31.8217280  84.3669934  20.0323091  31.3708470
  87.2898632  16.8095722  35.9194946  86.5231028  16.2554209  36.0651628
  87.7009337  16.8817591  36.7809098  79.2940393  23.0980518  50.0100127
  80.1571854  22.7417323  50.2203452  78.7205804  22.7594413  50.6975531
  99.1388770  44.7282375  40.8162528  99.7767180  44.6089122  40.1125868
  99.0209613  45.6763219  40.8750480  95.9478476  44.6809803  40.7524053
  95.6096988  44.5650867  39.8644588  96.8168244  44.2800968  40.7325059
  91.8065292  46.5345279  36.7420944  91.2430157  46.4435216  35.9737232
  91.6917687  45.7145184  37.2223436  96.4298259  45.8344654  46.7110258
  96.4186900  45.4397453  45.8390762  96.5918899  45.1010727  47.3044030
  97.3864851  50.2016247  32.0535409  96.7352830  50.7870327  31.6669422
  98.1809213  50.7322442  32.1130446  91.3120478  47.2905384  32.4522543
  92.0851354  46.7434371  32.3135419  91.6645877  48.1549633  32.6637004
  93.1505520  48.6181766  45.6589442  92.8595386  49.5227397  45.5436109
  93.7862505  48.6598294  46.3733512  94.0761727  45.9958615  42.2490802
  94.6725299  45.7714637  41.5347765  94.1336699  45.2543360  42.8516250
  93.6486756  43.4498050  30.0840993  93.9012276  42.9279571  29.3224456
  92.7111315  43.2864196  30.1867677  98.6930038  42.4533828  37.8915736
  99.4793128  42.0353252  37.5406153  98.9568743  43.3579921  38.0597385
  98.8640116  47.8906679  32.5904393  98.2285949  47.9641305  33.3025298
  98.5337522  48.4800278  31.9123472 104.0938465  42.3909062  38.7948715
 104.8263637  41.8208278  39.0286544 103.3377821  42.0030662  39.2355220
  93.3683044  45.3526156  32.2865368  93.2519302  44.6771059  32.9546452
  93.4785304  44.8658530  31.4697521  95.7114585  44.8136303  35.9912057
  95.3472792  44.2866924  36.7024979  96.5681701  44.4234772  35.8178543
 101.6163886  36.1030636  43.2543323 101.2847211  36.9726047  43.0304538
 101.0209499  35.7866920  43.9337354  95.3520072  39.8426203  30.9873406
  95.5194474  40.7106439  31.3543877  95.1617241  40.0053485  30.0634695
  98.1095405  48.3043182  42.6539236  97.8096128  49.2068221  42.5455043
  97.7646465  48.0375365  43.5060389  91.5607887  44.7556979  38.6875940
  90.6358383  44.6233193  38.8953632  91.8092300  45.5351198  39.1845883
 101.5092549  40.8225722  40.3336673 100.6009426  40.7541130  40.0395434
 101.4580145  41.2997667  41.1618499  95.3309293  42.2983860  31.9720072
  95.2108918  42.7440911  32.8105553  94.6361881  42.6469178  31.4133611
  95.5833415  42.2415367  48.2771571  94.8066749  42.8009288  48.2674435
  96.2223978  42.7272150  48.7986441 103.3754196  39.0242160  42.1114547
 102.7328576  39.3174693  41.4654342 102.8709124  38.9095081  42.9167744
 101.0294359  42.7705333  32.8000407 101.9412215  43.0032720  32.6248104
 100.5204006  43.3542378  32.2375485  93.8379787  45.0500821  47.8389538
  94.5794472  45.5885865  47.5624361  93.1316773  45.6767110  47.9961089
  99.3135127  47.1929961  46.4361699  99.7218483  46.7512372  45.6916331
  98.5912388  46.6182589  46.6895892  95.6666197  42.1302568  43.8095256
  96.5127392  42.5541982  43.9529905  95.6064835  41.4736192  44.5033819
  99.6363941  47.7531152  40.1913988  99.0072804  47.9176866  39.4890056
  99.2489604  48.1672762  40.9624952 103.5153173  48.6885590  37.5458352
 102.8304212  49.0684491  36.9955385 103.5997023  49.2980916  38.2790300
  98.8165642  39.7906936  45.4676430  98.5726574  40.5448997  44.9310705
  99.0925573  40.1692284  46.3023677 100.7704105  46.3345549  44.1453695
 100.9821000  46.9777309  43.4688076 100.7233853  45.5007865  43.6775625
  98.3730334  38.9463369  41.0490267  97.5114813  39.2444623  41.3407005
  98.3992769  39.1633768  40.1171300  95.1891903  47.4905560  37.4564073
  95.6530249  47.7693263  36.6668696  94.9248701  46.5889005  37.2737164
  92.0815984  47.0377042  40.3943836  92.6517341  47.4664310  39.7561321
  92.6724096  46.7559626  41.0928022  94.1260789  43.6128712  34.2653638
  94.8284833  44.0649756  34.7327565  93.7941418  42.9712531  34.8933531
  92.5741151  42.2040469  48.6404848  91.9439812  42.8856750  48.8740244
  92.4677239  42.0923551  47.6957986  87.8686123  41.8712265  39.5670772
  87.0785177  42.1269794  39.0910882  88.3597371  42.6860603  39.6722812
 101.8849933  49.2117504  42.3176053 102.7067377  48.8097692  42.0358734
 101.8812336  49.1085738  43.2692168  89.8200869  42.2356844  36.5254249
  89.0232032  42.3475539  37.0437744  89.5926461  42.5743497  35.6595139
  95.6506536  48.7601548  44.4736763  95.7150969  49.2221955  45.3094935
  94.9417460  48.1298912  44.6019073  95.3654554  50.4269655  34.3415743
  95.2300229  51.2721191  34.7700591  95.9064367  50.6288933  33.5781677
  91.8521894  36.5061235  51.0030099  91.4588839  35.9527433  51.6777743
  92.6688034  36.8171813  51.3936616  94.7689855  37.9219114  48.5950355
  95.5099568  38.5226267  48.5154818  95.0007777  37.1796752  48.0368398
  89.9131193  43.1075481  46.8728585  89.7984708  42.2060738  47.1735684
  89.0575710  43.3539178  46.5213401  96.9923030  51.0493222  48.4716086
  96.5486885  50.2629600  48.1536990  97.6540244  51.2372372  47.8059976
  99.0904268  51.3296021  46.4997487  99.0722744  52.1504903  46.0077756
 100.0124189  51.2050097  46.7247628  95.5477323  48.8440151  47.3420995
  96.0805659  48.0828439  47.1120303  95.0191404  48.5513803  48.0845150
  98.7147018  33.9500217  42.8714637  98.3711287  34.8401859  42.7953748
  99.0825980  33.7601875  42.0084222  98.6797300  43.9408828  31.3787072
  98.1643924  44.7113433  31.6175459  98.4074609  43.2673964  32.0020133
  96.2644411  38.7858529  36.4372310  95.4086008  38.3965379  36.2577949
  96.6771363  38.8650490  35.5772096  97.7943558  36.3204872  40.8363870
  97.2908354  36.2835007  40.0231675  98.0874165  37.2297615  40.8960527
  94.0386444  36.4043602  39.8430052  94.9039441  36.2086410  39.4835941
  94.1063953  36.1753954  40.7699409 103.6531574  46.6941183  33.3140246
 102.8761017  46.3552342  32.8695408 104.3323055  46.6993806  32.6395211
  98.4683603  41.8135920  33.2046853  98.1633739  42.1282069  34.0556996
  99.4214046  41.8917340  33.2474186  96.9130035  47.9726143  34.8539807
  96.3851397  47.2378903  34.5413045  96.4117538  48.7500820  34.6079776
 101.8922881  46.1675164  39.9706854 101.2346556  46.8574425  40.0586982
 102.6963281  46.5571596  40.3140840  91.6448763  38.6345810  37.2146419
  92.2192515  38.4120991  36.4819612  92.2319745  38.7034504  37.9675020
 100.7028340  44.5219537  38.0210795 101.2160222  45.1549528  38.5232505
 101.3529564  43.9220732  37.6554155  91.9718350  40.6650271  31.2342304
  91.1355662  41.0024957  31.5551579  91.8323120  40.5299251  30.2969441
  93.9471431  35.5087059  35.9421488  93.2935843  35.1936076  35.3178103
  93.9051905  34.8862799  36.6681311  95.0582636  45.7906354  27.8574780
  94.1509697  45.5595607  28.0565929  95.5553668  44.9943973  28.0448762
  97.9650714  54.5003861  30.7771466  97.2912413  54.8035558  31.3856424
  98.3516536  55.3032941  30.4276923  97.1809171  41.9968992  40.2669136
  96.2631732  42.2183939  40.1090824  97.5969315  42.0715303  39.4080843
  97.9644219  43.3960408  35.3971816  98.7116038  43.9081805  35.0878938
  98.2335808  43.0744461  36.2576210  96.2370869  45.8918949  32.3798770
  95.3282088  45.6077981  32.4771240  96.2665953  46.3118027  31.5202077
 101.4690136  49.5025538  36.1489938 101.0152463  48.6616448  36.2055128
 100.8384103  50.1386936  36.4864718 100.4123056  40.4317524  37.3790605
  99.6745813  39.9194910  37.7100848 100.6649829  39.9917906  36.5673882
  99.9123076  51.3402035  37.0839756 100.2046050  51.9007092  36.3652122
 100.4221696  51.6330596  37.8392915 100.5134683  33.2093776  37.9732375
 100.8193560  32.3491140  37.6858290 101.2387288  33.8011396  37.7731369
  94.7855763  43.5047569  38.4808566  94.8404373  42.5521406  38.4051042
  93.9746965  43.6607008  38.9649864  95.9346957  47.4327692  29.7186849
  95.4966387  46.7163551  29.2592486  96.6757398  47.6603807  29.1571940
  92.7248123  42.1224629  36.2398945  91.9115988  42.4218799  36.6464137
  93.2207117  41.7280318  36.9573427  98.3222335  42.5866453  45.0713838
  98.6771722  42.8137927  45.9308304  98.9694466  42.9184830  44.4491094
 104.0520072  45.7084889  35.7763167 103.9137970  45.8986485  34.8484357
 103.6956290  46.4704272  36.2331219  92.2162198  39.6942984  41.8560179
  92.8561577  39.5531744  41.1583143  91.3839728  39.4077498  41.4798781
 104.0789451  47.7761416  40.7874439 104.5125958  47.6836705  41.6357493
 104.7921032  47.7518917  40.1494455  92.9922502  48.9945415  37.9695172
  93.7863100  48.4995735  37.7677747  92.2814194  48.4663278  37.6062878
  97.8117346  51.3763510  42.3207540  97.8654368  51.9454447  43.0885255
  96.9432127  51.5465395  41.9561577  89.3005265  43.1388497  34.0454925
  88.3702853  43.0772952  34.2624887  89.3962737  42.6164449  33.2491566
  89.2190814  39.6643309  36.6333166  89.4797631  40.5788643  36.5242327
  90.0407986  39.1967752  36.7829779  90.6915739  41.0781067  43.8031991
  91.3638793  40.8698429  43.1544640  89.8645526  40.8803153  43.3637223
  96.5941311  37.7043008  45.8197652  95.9469226  38.4032957  45.7262128
  97.3642327  38.1379151  46.1873900 100.0020109  47.9691860  48.8948205
  99.8505616  47.7402411  47.9778289  99.9924789  48.9262461  48.9079550
  96.7705446  45.5423772  43.8794471  97.6997506  45.6934932  43.7063439
  96.3496476  45.6307793  43.0243118  95.5693778  49.5674437  41.6493009
  95.4304863  49.1993221  42.5218947  94.7808374  50.0822076  41.4776967
  97.1198993  48.9456040  39.0381847  96.7848825  48.9056809  39.9339497
  96.6202938  48.2800755  38.5652257  91.0943237  44.3523670  44.5634428
  90.9563035  43.6203908  45.1645967  92.0048160  44.2632570  44.2818616
 100.0558184  46.2912074  29.3118906  99.4387355  45.5658902  29.2151959
  99.5874673  47.0521434  28.9685981  93.7225537  44.0643629  44.0518108
  94.4325156  43.4236821  44.0104726  93.6794846  44.3156524  44.9744288
 101.7112316  51.0010982  46.9724687 101.6524862  50.3170202  46.3055270
 102.1131834  51.7429972  46.5205313  92.4354471  41.0508847  45.8713747
  91.8991828  40.5999585  46.5235343  91.8471180  41.1854756  45.1284211
  91.8456730  40.5097498  28.4340211  90.9686197  40.3886299  28.0702457
  92.3214483  39.7183576  28.1819099 101.7129723  48.9650566  45.2038667
 100.8256502  48.6276488  45.3265065 102.2828274  48.2333597  45.4407432
  88.1693593  40.1864854  42.9566742  88.0851781  39.5790524  42.2217152
  87.3476299  40.6773873  42.9576238  95.0320656  52.8623789  35.6802731
  94.2488178  53.4045469  35.7740956  95.7313401  53.3797768  36.0796972
  98.3417306  38.6718418  38.3236937  98.8386006  37.9188380  38.0038007
  97.5704288  38.7082735  37.7580146  97.7029560  53.5238853  44.3258068
  98.4157532  54.1586317  44.2533970  97.2119589  53.6202719  43.5098070
  99.4247087  47.4290105  35.8975360  98.4903366  47.5491568  35.7280064
  99.6023756  46.5262572  35.6335370  94.9252275  40.8135801  38.0508621
  94.5550063  40.2606841  38.7389527  95.4211368  40.2093934  37.4983621
 102.8119638  43.2707424  36.4325394 103.2780091  44.1035416  36.3585697
 103.2627139  42.8052406  37.1370653  92.7541474  51.2733296  45.1463639
  93.4550933  51.9069779  45.2993033  92.2836589  51.6148028  44.3859278
 100.8795870  49.6151246  33.4311546 101.1555713  49.5007840  34.3405420
 100.0100368  49.2168731  33.3923719 100.7836301  35.6388011  40.4716296
  99.8699381  35.8692238  40.6398502 101.2129403  35.7226456  41.3230328
 100.5542760  43.8277903  42.9716190  99.9014210  44.0753811  42.3168642
 100.9323140  43.0142042  42.6378667  97.5149934  53.8637597  37.0744360
  97.6972328  53.0459253  37.5372112  98.3382920  54.0805289  36.6369250
  97.8492099  52.7905782  34.3359408  98.3779866  52.2798236  33.7229570
  98.1120319  52.4748312  35.2004941  96.6030333  44.5697715  49.4582227
  95.9270970  44.4691844  50.1284602  97.4257967  44.4136928  49.9218224
  95.3453116  55.8764642  43.6939843  95.8971424  56.0396263  44.4588928
  95.6859309  56.4669080  43.0219867  90.3217609  38.2239792  44.2961727
  90.3858935  39.0854623  43.8839125  90.2584729  37.6113793  43.5634086
  89.7969881  40.2962924  47.9434762  90.4241920  39.9140002  48.5572286
  88.9397800  40.0777126  48.3090454 100.1963990  50.7025899  49.5488497
 100.7403894  51.3155858  49.0543452  99.6150835  51.2605478  50.0655510
  86.5735424  42.1039353  33.8753116  86.8688865  41.1950032  33.8220170
  85.6723460  42.0827093  33.5534119  98.4821503  53.8246617  40.6803525
  98.3572642  53.0236357  40.1714470  99.1400594  54.3192811  40.1917495
  90.1029671  40.1795350  39.8580665  89.3816257  40.7931318  39.7188138
  90.8922927  40.7153115  39.7797311 100.5456411  51.6255638  42.3083075
  99.5986747  51.5060989  42.2361402 100.8939184  50.7378136  42.3909336
  92.9055985  37.5149776  46.1321317  93.4290386  37.7612073  46.8947626
  92.6868318  38.3469811  45.7124454  88.3023266  39.7853451  33.9992442
  87.9735972  38.9050830  33.8167547  88.6562636  39.7301120  34.8868831
  97.5502845  51.4208354  38.5087427  97.4027807  50.4925061  38.6894997
  98.3756338  51.4428444  38.0244502  91.4165089  40.0726421  34.3667919
  91.7561161  40.6012342  33.6446528  91.8637209  40.4106827  35.1426486
 101.1536966  52.2436913  39.5952300 102.0783514  52.0379774  39.4576751
 100.9852270  51.9953314  40.5041641  94.1108530  38.4563472  43.8170987
  93.7705350  37.6571285  44.2191667  93.4047536  38.7565182  43.2447820
  94.7625002  35.5412784  42.2698310  95.5851071  35.0673262  42.1477201
  95.0063065  36.3203268  42.7696997  93.4033236  38.5701042  32.5661212
  94.1241599  38.9482295  32.0624929  92.7798540  39.2889919  32.6696190
  97.5464359  39.2746191  33.5019544  97.7627973  40.1570829  33.2008373
  97.0658426  38.8832405  32.7725186  92.2863580  42.2331905  40.0790289
  92.1408161  42.5472208  40.9714570  91.8088784  42.8516805  39.5261188
  94.1459963  39.2234453  40.1271178  94.1321532  38.3275546  39.7903476
  94.8632391  39.2305116  40.7609465  95.9986094  39.6571793  42.1724306
  95.7403872  40.5788863  42.1708636  95.4671134  39.2602227  42.8624770
 100.9432283  52.7622580  34.9514391 101.1169160  52.1969002  34.1988244
 101.4361174  53.5623475  34.7693881  93.5496859  38.1048833  35.3958749
  93.6712770  37.1765479  35.5949636  93.2598901  38.1187519  34.4837064
  96.4188049  35.7903743  38.5325468  96.4409746  35.8543076  37.5777448
  96.8356108  34.9508252  38.7265975 101.9307455  52.0789344  32.0511290
 102.6258360  52.6996037  32.2698604 102.2730605  51.2284696  32.3263667
  87.5475264  43.9007145  45.9108107  86.8057000  44.0489781  46.4972737
  87.2268009  44.1615411  45.0474856 103.8298878  49.5289050  33.5798620
 104.3550202  49.8676323  32.8547940 103.7421231  48.5936065  33.3961755
  95.4918927  53.4423124  45.7088497  95.8006053  53.1972270  46.5811197
  96.2894409  53.6469762  45.2207367  93.0337939  39.6180830  49.6048681
  93.0826094  40.4942953  49.2226451  93.5760453  39.0758223  49.0320324
 103.5192784  50.1621954  48.8849818 102.7288328  50.1446092  48.3454318
 103.2826139  50.7010247  49.6398855 103.6390659  47.0114420  46.1982547
 103.6888664  46.8464427  47.1398070 103.5304583  46.1441679  45.8080428
 100.9294422  42.9945348  47.5141854 101.8304285  42.8551813  47.2225851
 101.0042396  43.1599803  48.4540031  95.2637227  40.3712203  46.3595040
  94.3940536  40.6645769  46.0877628  95.4996707  40.9552648  47.0802304
 103.3896044  44.5543976  44.9104626 103.8650166  44.7471622  44.1023478
 102.4661610  44.6103162  44.6648010  90.2779551  45.7168143  34.4935705
  90.0325593  44.8130473  34.6915915  90.4475466  45.7185294  33.5515183
  97.9676261  36.5891820  43.8760460  98.4858205  37.3252847  43.5506949
  97.6131394  36.8955813  44.7107219  89.5475199  41.4496501  31.9921866
  88.8544444  41.5240856  31.3361902  89.3026950  40.6856844  32.5143383
  98.2188855  33.0092102  39.3961357  98.4990609  32.3415291  40.0221783
  99.0039462  33.2021198  38.8836021 102.0897713  41.4309736  43.1432932
 103.0415136  41.5307834  43.1645156 101.9201164  40.6388005  43.6531016
 100.1112093  38.5165319  43.3292333  99.5162025  38.7970332  42.6338822
  99.8261790  39.0059220  44.1009074  99.2419583  52.4688246  32.0894965
 100.1750257  52.4033808  32.2927841  99.1542796  53.3044513  31.6309498
 101.8707600  51.7854117  29.0498913 101.7921232  51.4513980  29.9434671
 102.6917267  52.2775884  29.0490385  96.4069122  43.5211909  28.3002436
  97.3528227  43.3918117  28.3690854  96.0283367  42.7826571  28.7771864
 102.3791007  35.1867915  38.2629327 102.1815828  34.8783003  39.1472659
 102.9890712  35.9129554  38.3927257  96.2907815  47.5729655  49.7603093
  97.2110824  47.7508254  49.9543139  96.2557398  46.6285700  49.6082792
  94.5912039  41.4461885  28.2357321  93.6843495  41.1494998  28.3120035
  94.8688020  41.1491703  27.3691607  89.2869887  45.4830690  42.4025874
  89.5055897  46.4147797  42.4213908  89.6995661  45.1238664  43.1880678
  96.2074105  35.9898775  34.3901562  95.3974833  35.6445860  34.7656808
  96.8958522  35.6806319  34.9789174  98.1364653  35.0676822  36.0125859
  98.6895692  35.4872275  36.6715882  98.3734740  34.1412570  36.0548815
  94.1597752  41.0563895  51.7928623  94.0594479  42.0058252  51.7240714
  93.9419295  40.7282134  50.9204693  93.3610824  38.3048820  28.3769300
  94.2229988  38.6303719  28.6365117  93.5461168  37.5180316  27.8642366
 101.5143460  37.1777347  35.5204523 100.9342129  37.8362151  35.1382576
 101.2479393  36.3554691  35.1091941  99.9647027  36.5782405  37.7225843
 100.4646805  36.6898939  36.9140162 100.6082635  36.2743457  38.3626652
  94.0229023  44.4861034  50.6093684  93.5396104  45.2861394  50.8157573
  94.1089962  44.4968979  49.6561128  90.5401742  46.9466685  45.2132916
  91.3594631  47.4410764  45.2367753  90.8138550  46.0298653  45.1850483
 100.2968338  39.3377437  34.5760871  99.4094193  39.6227088  34.3581066
 100.7122327  39.1771201  33.7288148 103.6482874  39.3623958  38.2915211
 104.4243265  39.8520411  38.5639827 102.9231009  39.7882012  38.7487080
  99.4411552  49.1022112  28.6708891 100.1447402  49.3072114  29.2866547
  98.7174201  49.6698874  28.9357975 100.2709362  44.8531973  34.7911162
 100.2144563  45.3100525  33.9518794 100.8237705  44.0922658  34.6134004
 104.0814168  40.6421705  35.6161281 103.8251102  40.2418341  36.4469489
 103.4567036  41.3565499  35.4911420 101.3498249  49.5404641  30.7207351
 102.1843853  49.1085840  30.5384826 101.1882592  49.3686655  31.6484246
 101.0044141  46.0436754  32.0863691 100.9492945  45.8781026  31.1452135
 100.3790197  46.7512787  32.2425880  85.7936656  41.2804819  45.9125113
  86.4395520  40.7703773  46.4012338  85.5853808  42.0173500  46.4868538
  98.3190049  48.3485666  51.4117253  99.1881208  48.5226319  51.0503888
  97.8396800  49.1680083  51.2892983  94.3140267  35.5444863  31.6649009
  94.3018937  36.4886703  31.8217280  95.2063689  35.3615009  31.3708470
  98.1292386  32.1387640  35.9194946  97.3624782  31.5846127  36.0651628
  98.5403091  32.2109509  36.7809098  90.1334147  38.4272436  50.0100127
  90.9965609  38.0709241  50.2203452  89.5599558  38.0886331  50.6975531
 102.6459046  61.8637197  36.7420944 102.0823911  61.7727134  35.9737232
 102.5311441  61.0437101  37.2223436 100.1923478  63.3588388  39.5805164
 100.9844770  63.0179213  39.1651464 100.4320128  63.4683363  40.5007318
 102.1514232  62.6197302  32.4522543 102.9245108  62.0726289  32.3135419
 102.5039631  63.4841551  32.6637004 103.9899275  63.9473684  45.6589442
 103.6989141  64.8519315  45.5436109 104.6256259  63.9890211  46.3733512
 104.4880510  58.7789968  30.0840993 104.7406031  58.2571489  29.3224456
 103.5505069  58.6156113  30.1867677 104.2076799  60.6818074  32.2865368
 104.0913057  60.0062977  32.9546452 104.3179059  60.1950448  31.4697521
 102.4001641  60.0848896  38.6875940 101.4752138  59.9525110  38.8953632
 102.6486054  60.8643115  39.1845883  99.7610452  59.7282170  39.5219730
  99.8902834  59.9816649  40.4359141  99.0807904  60.3209878  39.2024385
 103.9309940  70.3979420  35.6210204 103.8533969  71.3487245  35.6998684
 103.3271583  70.0525292  36.2785130 102.9209739  62.3668959  40.3943836
 103.4911096  62.7956228  39.7561321 103.5117851  62.0851544  41.0928022
 103.4134905  57.5332387  48.6404848 102.7833566  58.2148668  48.8740244
 103.3070993  57.4215468  47.6957986  98.7079878  57.2004183  39.5670772
  97.9178932  57.4561711  39.0910882  99.1991125  58.0152521  39.6722812
 100.6594623  57.5648762  36.5254249  99.8625787  57.6767456  37.0437744
 100.4320215  57.9035414  35.6595139  96.9917581  57.4534673  41.9985763
  97.2425619  58.3381683  42.2643339  97.5277129  57.2739275  41.2260854
 102.6915648  51.8353153  51.0030099 102.2982594  51.2819351  51.6777743
 103.5081788  52.1463731  51.3936616  99.6577706  63.2737011  34.9143669
 100.1702226  64.0680261  35.0649233 100.3100419  62.5763301  34.8477270
 101.4672591  66.3902767  36.9966422 101.6439219  67.3120732  36.8087406
 102.2629424  66.0761186  37.4260802 100.7524947  58.4367399  46.8728585
 100.6378462  57.5352656  47.1735684  99.8969465  58.6831096  46.5213401
 102.5903906  67.9080941  42.9976764 103.1411331  67.7798004  42.2253758
 101.7515382  68.2075830  42.6471657  97.6226623  61.6025665  35.6903239
  98.4601845  62.0122673  35.4736947  97.8004890  60.6625107  35.6603433
 102.4842517  53.9637727  37.2146419 103.0586269  53.7412909  36.4819612
 103.0713500  54.0326422  37.9675020 102.8112105  55.9942188  31.2342304
 101.9749417  56.3316875  31.5551579 102.6716874  55.8591168  30.2969441
 104.7865185  50.8378976  35.9421488 104.1329597  50.5227993  35.3178103
 104.7445659  50.2154717  36.6681311  97.6452794  58.9416380  36.3613973
  97.4477194  58.3485741  35.6365039  97.0899458  58.6368591  37.0789911
 103.5641877  57.4516547  36.2398945 102.7509743  57.7510717  36.6464137
 104.0600872  57.0572235  36.9573427 103.0555952  55.0234902  41.8560179
 103.6955331  54.8823661  41.1583143 102.2233483  54.7369415  41.4798781
 103.8316256  64.3237333  37.9695172 104.6256855  63.8287653  37.7677747
 103.1207948  63.7955196  37.6062878 100.1399020  58.4680414  34.0454925
  99.2096608  58.4064870  34.2624887 100.2356492  57.9456367  33.2491566
 100.0584569  54.9935227  36.6333166 100.3191386  55.9080560  36.5242327
 100.8801741  54.5259670  36.7829779 101.5309494  56.4072984  43.8031991
 102.2032547  56.1990346  43.1544640 100.7039280  56.2095070  43.3637223
 101.9336991  59.6815587  44.5634428 101.7956789  58.9495826  45.1645967
 102.8441915  59.5924487  44.2818616 103.2748226  56.3800764  45.8713747
 102.7385583  55.9291503  46.5235343 102.6864934  56.5146673  45.1284211
 101.5696769  73.1464814  39.7658406 101.8093368  73.7783338  40.4437424
 100.7265966  72.7952854  40.0523765 102.6850485  55.8389416  28.4340211
 101.8079951  55.7178217  28.0702457 103.1608238  55.0475494  28.1819099
  94.2052625  60.6266576  38.5281718  94.8923665  60.3128306  37.9402733
  94.0500754  61.5307940  38.2548969  99.0087347  55.5156772  42.9566742
  98.9245536  54.9082442  42.2217152  98.1870053  56.0065790  42.9576238
 103.5935228  66.6025214  45.1463639 104.2944688  67.2361697  45.2993033
 103.1230343  66.9439945  44.3859278  99.1902946  66.1361569  42.0794742
  99.7756383  65.3905257  42.2122646  98.9927785  66.4465525  42.9631406
 102.0441602  69.1712816  37.0957184 101.3751977  69.6558944  36.6121224
 101.9054471  69.4182037  38.0100563  93.7820601  58.7067169  40.7999185
  93.8204701  58.1730760  41.5936303  93.2760894  58.1802374  40.1810162
 101.1611363  53.5531709  44.2961727 101.2252690  54.4146540  43.8839125
 101.0978484  52.9405711  43.5634086 100.6363636  55.6254842  47.9434762
 101.2635675  55.2431919  48.5572286  99.7791555  55.4069044  48.3090454
  97.4129179  57.4331271  33.8753116  97.7082620  56.5241950  33.8220170
  96.5117214  57.4119011  33.5534119 100.9423426  55.5087268  39.8580665
 100.2210011  56.1223235  39.7188138 101.7316681  56.0445032  39.7797311
 103.7449739  52.8441694  46.1321317 104.2684141  53.0903991  46.8947626
 103.5262072  53.6761729  45.7124454  99.1417020  55.1145369  33.9992442
  98.8129726  54.2342748  33.8167547  99.4956391  55.0593037  34.8868831
 102.2558843  55.4018339  34.3667919 102.5954916  55.9304260  33.6446528
 102.7030964  55.7398745  35.1426486 104.9502284  53.7855389  43.8170987
 104.6099105  52.9863202  44.2191667 104.2441290  54.0857100  43.2447820
 104.2426991  53.8992960  32.5661212 104.9635353  54.2774213  32.0624929
 103.6192295  54.6181837  32.6696190 103.1257335  57.5623822  40.0790289
 102.9801915  57.8764125  40.9714570 102.6482538  58.1808723  39.5261188
  97.6002997  60.1029167  43.0177950  97.0556465  60.8788975  43.1498224
  98.4782347  60.4499971  42.8597072 104.3890614  53.4340751  35.3958749
 104.5106525  52.5057397  35.5949636 104.0992656  53.4479437  34.4837064
  98.3869019  59.2299063  45.9108107  97.6450755  59.3781698  46.4972737
  98.0661763  59.4907329  45.0474856  98.8325632  67.1164492  37.9418502
  99.6583652  66.8168264  37.5617145  98.4819684  66.3472114  38.3908290
 103.8007166  66.4690960  40.0116175 103.1787175  65.8061665  39.7118403
 104.4712033  66.4952092  39.3289823  97.0334238  65.0350818  38.9007435
  96.1966146  64.6072993  38.7191436  97.0057883  65.2283262  39.8378226
 103.8731693  54.9472748  49.6048681 103.9219849  55.8234871  49.2226451
 104.4154207  54.4050141  49.0320324 103.3620673  65.0194883  33.4874636
 103.5108793  65.7030348  32.8341308 104.1687116  64.9999973  34.0024091
 101.1173306  61.0460061  34.4935705 100.8719347  60.1422391  34.6915915
 101.2869220  61.0477211  33.5515183 100.3868953  56.7788419  31.9921866
  99.6938198  56.8532773  31.3361902 100.1420705  56.0148762  32.5143383
  96.3483734  58.0960166  38.6856367  96.0286518  57.2425474  38.3930741
  95.8017162  58.3108744  39.4414335 100.1263642  60.8122607  42.4025874
 100.3449651  61.7439715  42.4213908 100.5389415  60.4530582  43.1880678
 104.9991507  56.3855813  51.7928623 104.8988234  57.3350170  51.7240714
 104.7813049  56.0574052  50.9204693  96.2171994  61.7163078  40.6549489
  95.5235466  61.3017031  40.1419443  96.9644985  61.7583614  40.0582908
 104.8622777  59.8152952  50.6093684 104.3789859  60.6153312  50.8157573
 104.9483716  59.8260897  49.6561128  98.1308737  61.6481332  38.5315504
  98.1079425  61.7469019  37.5797387  98.4409373  62.4946482  38.8532670
 100.7896115  63.7057487  42.6462118 101.7439368  63.6741429  42.5792050
 100.5908638  63.2448110  43.4612344 101.3795497  62.2758603  45.2132916
 102.1988386  62.7702681  45.2367753 101.6532304  61.3590571  45.1850483
  99.1446343  69.2477106  39.6632316  99.0100811  68.4877507  39.0970314
  98.7278406  69.9718006  39.1961105 102.3015469  70.1446423  39.8750759
 102.1847853  71.0891856  39.7729449 101.4807915  69.8419985  40.2636558
  96.6330411  56.6096737  45.9125113  97.2789274  56.0995690  46.4012338
  96.4247562  57.3465418  46.4868538 103.3269983  70.7974685  43.0906687
 104.2297230  70.8298295  43.4073182 103.1007353  69.8675136  43.1053023
 100.9727902  53.7564354  50.0100127 101.8359363  53.4001158  50.2203452
 100.3993313  53.4178248  50.6975531 104.6214356  74.0359087  40.7999185
 104.6598455  73.5022677  41.5936303 104.1154648  73.5094292  40.1810162
  69.0515507   4.1651183  26.4903712  69.2912105   4.7969707  27.1682731
  68.2084704   3.8139223  26.7769072  80.9671539   8.2115484  23.4666250
  80.4036404   8.1205421  22.6982538  80.8523934   7.3915388  23.9468743
  78.5135971   9.7066676  26.3050471  79.3057262   9.3657500  25.8896770
  78.7532621   9.8161651  27.2252624  80.4726724   8.9675589  19.1767850
  81.2457600   8.4204576  19.0380725  80.8252123   9.8319838  19.3882311
  82.3111767  10.2951971  32.3834749  82.0201633  11.1997602  32.2681415
  82.9468751  10.3368499  33.0978819  87.2701652   9.9813387  29.3784543
  86.9702375  10.8838425  29.2700350  86.9252712   9.7145570  30.2305696
  82.2522432  16.7457707  22.3455510  82.1746462  17.6965532  22.4243991
  81.6484075  16.4003579  23.0030437  84.3498150   9.1675765  24.1809380
  84.8136496   9.4463468  23.3914002  84.0854948   8.2659210  23.9982470
  81.2422231   8.7147246  27.1189143  81.8123588   9.1434515  26.4806627
  81.8330343   8.4329831  27.8173329  84.8112783  10.4371752  31.1982070
  84.8757216  10.8992160  32.0340242  84.1023707   9.8069117  31.3264380
  84.5260801  12.1039860  21.0661050  84.3906476  12.9491396  21.4945898
  85.0670613  12.3059138  20.3026984  77.9790198   9.6215298  21.6388975
  78.4914719  10.4158548  21.7894540  78.6312911   8.9241588  21.5722577
  79.7885083  12.7381054  23.7211728  79.9651711  13.6599019  23.5332712
  80.5841916  12.4239473  24.1506108  86.1529277  12.7263426  35.1961392
  85.7093131  11.9399805  34.8782297  86.8146491  12.9142577  34.5305283
  80.9116398  14.2559228  29.7222071  81.4623823  14.1276291  28.9499065
  80.0727874  14.5554117  29.3716963  88.2510515  13.0066226  33.2242793
  88.2328991  13.8275107  32.7323063  89.1730435  12.8820302  33.4492935
  84.7083569  10.5210356  34.0666302  85.2411906   9.7598644  33.8365610
  84.1797651  10.2284008  34.8090456  75.9439115   7.9503952  22.4148546
  76.7814337   8.3600961  22.1982253  76.1217383   7.0103394  22.3848740
  86.0736282   9.6496348  21.5785114  85.5457644   8.9149108  21.2658351
  85.5723785  10.4271025  21.3325082  87.1256961  16.1774066  17.5016773
  86.4518660  16.4805763  18.1101731  87.5122783  16.9803146  17.1522230
  89.0729322  13.0172240  23.8085063  89.3652297  13.5777297  23.0897428
  89.5827943  13.3100801  24.5638222  84.0362948  13.7952591  24.8978516
  83.9939126  14.0213437  23.9687048  84.9525646  13.5615965  25.0464317
  82.1528748  10.6715620  24.6940479  82.9469347  10.1765940  24.4923054
  81.4420441  10.1433483  24.3308184  86.9723593  13.0533715  29.0452846
  87.0260615  13.6224652  29.8130562  86.1038374  13.2235600  28.6806883
  84.7300024  11.2444642  28.3738316  84.5911110  10.8763426  29.2464254
  83.9414621  11.7592281  28.2022273  85.3248176  16.3453738  19.7163852
  85.4999932  15.8741781  20.5309475  84.6380964  16.9719504  19.9445113
  86.2805240  10.6226244  25.7627153  85.9455072  10.5827014  26.6584803
  85.7809185   9.9570960  25.2897564  90.8718563  12.6781187  33.6969993
  90.8131109  11.9940407  33.0300577  91.2738081  13.4200177  33.2450619
  79.8909262  19.4943101  26.4903712  80.1305860  20.1261625  27.1682731
  79.0478458  19.1431141  26.7769072  72.5265117   6.9744863  25.2527025
  73.2136157   6.6606593  24.6648040  72.3713246   7.8786227  24.9794276
  84.4037123  15.3022223  28.8945216  84.3307295  16.1077195  29.4064521
  83.9614517  15.5014189  28.0693238  84.1926903  14.5393993  22.4048038
  83.4094425  15.0815674  22.4986262  84.8919648  15.0567973  22.8042279
  86.8635807  15.2009057  31.0503375  87.5763779  15.8356522  30.9779276
  86.3725836  15.2972923  30.2343377  81.9147721  12.9503501  31.8708946
  82.6157180  13.5839984  32.0238340  81.4442836  13.2918232  31.1104585
  86.6756180  15.5407802  23.7989666  86.8578575  14.7229457  24.2617419
  87.4989166  15.7575494  23.3614556  87.0098346  14.4675987  21.0604715
  87.5386112  13.9568441  20.4474877  87.2726565  14.1518517  21.9250248
  77.5115439  12.4839856  28.8040049  78.0968875  11.7383544  28.9367953
  77.3140277  12.7943813  29.6876712  80.3654094  15.5191103  23.8202491
  79.6964469  16.0037231  23.3366531  80.2266964  15.7660324  24.7345869
  72.1033093   5.0545456  27.5244492  72.1417193   4.5209047  28.3181610
  71.5973386   4.5280662  26.9055469  84.5059362  17.5534847  30.4185149
  85.0577670  17.7166468  31.1834234  84.8465556  18.1439285  29.7465174
  89.3570237  12.3796104  36.2733804  89.9010141  12.9926063  35.7788758
  88.7757082  12.9375683  36.7900817  87.6427750  15.5016822  27.4048831
  87.5178889  14.7006562  26.8959777  88.3006841  15.9963016  26.9162801
  89.7062658  13.3025842  29.0328382  88.7592994  13.1831194  28.9606708
  90.0545431  12.4148341  29.1154643  86.7109091  13.0978559  25.2332734
  86.5634054  12.1695266  25.4140304  87.5362585  13.1198649  24.7489809
  90.3143213  13.9207117  26.3197607  91.2389761  13.7149979  26.1822058
  90.1458517  13.6723519  27.2286948  90.1038529  14.4392785  21.6759698
  90.2775407  13.8739207  20.9233550  90.5967421  15.2393680  21.4939188
  75.9215489   6.4507454  29.7423257  75.3768957   7.2267262  29.8743531
  76.7994839   6.7978258  29.5842378  84.6525174  15.1193328  32.4333804
  84.9612300  14.8742475  33.3056503  85.4500656  15.3239967  31.9452674
  84.6745786  17.2731238  24.6639180  84.2350776  16.7807617  25.3572037
  85.4253903  16.7304206  24.4231255  77.1538125  13.4642779  24.6663808
  77.9796145  13.1646551  24.2862452  76.8032177  12.6950401  25.1153597
  82.1219658  12.8169247  26.7361482  81.4999667  12.1539952  26.4363710
  82.7924525  12.8430379  26.0535130  75.3546730  11.3829105  25.6252742
  74.5178638  10.9551280  25.4436743  75.3270375  11.5761549  26.5623533
  92.6799031  11.8392158  35.6095125  91.8894575  11.8216297  35.0699624
  92.4432386  12.3780452  36.3644162  81.6833165  11.3673171  20.2119942
  81.8321285  12.0508635  19.5586615  82.4899608  11.3478261  20.7269398
  79.4385798   7.3938348  21.2181011  79.1931840   6.4900678  21.4161221
  79.6081712   7.3955499  20.2760489  85.1828570  13.8621301  17.6831690
  84.6102537  14.4811488  17.2302162  85.7561364  14.4120663  18.2171612
  78.4476134   7.1600895  29.1271180  78.6662144   8.0918002  29.1459214
  78.8601908   6.8008869  29.9125984  74.5384486   8.0641365  27.3794796
  73.8447958   7.6495318  26.8664750  75.2857477   8.1061902  26.7828214
  76.4521229   7.9959619  25.2560810  76.4291917   8.0947306  24.3042694
  76.7621865   8.8424770  25.5777977  79.1108607  10.0535774  29.3707425
  80.0651860  10.0219716  29.3037356  78.9121130   9.5926398  30.1857651
  79.7007989   8.6236890  31.9378222  80.5200878   9.1180969  31.9613060
  79.9744797   7.7068858  31.9095790  77.4658836  15.5955393  26.3877623
  77.3313304  14.8355794  25.8215621  77.0490898  16.3196293  25.9206412
  80.6227961  16.4924710  26.5996065  80.5060346  17.4370143  26.4974756
  79.8020408  16.1898272  26.9881865  87.4796295  10.0255871  38.1362560
  88.3487455  10.1996524  37.7749195  87.0003047  10.8450288  38.0138289
  81.6482476  17.1452972  29.8151994  82.5509722  17.1776583  30.1318489
  81.4219846  16.2153423  29.8298330  83.4036078  15.8983959  26.4762072
  82.4531709  15.8985820  26.3626445  83.7068564  15.1516693  25.9598107
  99.1388771  21.7344497  27.5407835  99.7767181  21.6151245  26.8371175
  99.0209614  22.6825341  27.5995787  95.9478477  21.6871925  27.4769359
  95.6096989  21.5712990  26.5889894  96.8168246  21.2863090  27.4570366
  91.8065293  23.5407402  23.4666250  91.2430158  23.4497339  22.6982538
  91.6917688  22.7207306  23.9468743  96.4298260  22.8406777  33.4355565
  96.4186901  22.4459575  32.5636069  96.5918900  22.1072850  34.0289336
  89.3529725  25.0358593  26.3050471  90.1451017  24.6949418  25.8896770
  89.5926375  25.1453568  27.2252624  91.3120479  24.2967507  19.1767850
  92.0851355  23.7496494  19.0380725  91.6645878  25.1611756  19.3882311
  93.1505521  25.6243889  32.3834749  92.8595387  26.5289520  32.2681415
  93.7862506  25.6660416  33.0978819  94.0761728  23.0020737  28.9736109
  94.6725301  22.7776760  28.2593072  94.1336700  22.2605483  29.5761556
  95.7114586  21.8198426  22.7157364  95.3472794  21.2929047  23.4270285
  96.5681702  21.4296895  22.5423849  98.1095407  25.3105304  29.3784543
  97.8096130  26.2130343  29.2700350  97.7646466  25.0437488  30.2305696
  91.5607888  21.7619101  25.4121247  90.6358385  21.6295315  25.6198939
  91.8092301  22.5413320  25.9091190  88.9216699  21.4052375  26.2465036
  89.0509080  21.6586854  27.1604448  88.2414150  21.9980083  25.9269691
  93.0916186  32.0749625  22.3455510  93.0140216  33.0257450  22.4243991
  92.4877830  31.7295497  23.0030437  95.5833416  19.2477490  35.0016877
  94.8066750  19.8071410  34.9919742  96.2223979  19.7334273  35.5231747
  93.8379788  22.0562943  34.5634844  94.5794473  22.5947987  34.2869668
  93.1316774  22.6829232  34.7206396  99.3135128  24.1992084  33.1607006
  99.7218484  23.7574494  32.4161638  98.5912390  23.6244711  33.4141199
  95.6666198  19.1364691  30.5340563  96.5127393  19.5604104  30.6775212
  95.6064836  18.4798315  31.2279126  99.6363943  24.7593275  26.9159295
  99.0072805  24.9238989  26.2135362  99.2489605  25.1734884  27.6870259
  98.8165643  16.7969059  32.1921736  98.5726575  17.5511120  31.6556012
  99.0925574  17.1754407  33.0268983 100.7704106  23.3407671  30.8699002
 100.9821001  23.9839431  30.1933383 100.7233854  22.5069988  30.4020932
  98.3730335  15.9525492  27.7735574  97.5114814  16.2506746  28.0652312
  98.3992770  16.1695891  26.8416607  95.1891905  24.4967683  24.1809380
  95.6530250  24.7755386  23.3914002  94.9248703  23.5951127  23.9982470
  92.0815986  24.0439164  27.1189143  92.6517343  24.4726433  26.4806627
  92.6724098  23.7621749  27.8173329  94.1260791  20.6190835  20.9898945
  94.8284834  21.0711879  21.4572871  93.7941419  19.9774654  21.6178838
  92.5741152  19.2102592  35.3650154  91.9439813  19.8918872  35.5985551
  92.4677240  19.0985673  34.4203293  87.8686125  18.8774388  26.2916078
  87.0785179  19.1331916  25.8156189  88.3597372  19.6922726  26.3968119
 101.8849934  26.2179627  29.0421359 102.7067378  25.8159814  28.7604041
 101.8812337  26.1147861  29.9937475  89.8200870  19.2418967  23.2499555
  89.0232033  19.3537661  23.7683051  89.5926462  19.5805619  22.3840446
  95.6506538  25.7663670  31.1982070  95.7150970  26.2284077  32.0340242
  94.9417462  25.1361035  31.3264380  86.1523828  19.1304878  28.7231069
  86.4031866  20.0151888  28.9888645  86.6883376  18.9509480  27.9506161
  95.3654555  27.4331778  21.0661050  95.2300230  28.2783313  21.4945898
  95.9064368  27.6351055  20.3026984  91.8521895  13.5123357  37.7275405
  91.4588840  12.9589556  38.4023050  92.6688035  13.8233936  38.1181923
  88.8183953  24.9507216  21.6388975  89.3308473  25.7450466  21.7894540
  89.4706666  24.2533506  21.5722577  90.6278837  28.0672972  23.7211728
  90.8045466  28.9890937  23.5332712  91.4235671  27.7531391  24.1506108
  94.7689856  14.9281237  35.3195662  95.5099569  15.5288390  35.2400124
  95.0007779  14.1858874  34.7613704  89.9131194  20.1137604  33.5973892
  89.7984709  19.2122861  33.8980990  89.0575712  20.3601301  33.2458708
  96.9923032  28.0555344  35.1961392  96.5486886  27.2691723  34.8782297
  97.6540245  28.2434495  34.5305283  91.7510153  29.5851146  29.7222071
  92.3017578  29.4568209  28.9499065  90.9121629  29.8846035  29.3716963
  99.0904270  28.3358144  33.2242793  99.0722745  29.1567025  32.7323063
 100.0124190  28.2112219  33.4492935  95.5477324  25.8502274  34.0666302
  96.0805661  25.0890562  33.8365610  95.0191405  25.5575925  34.8090456
  86.7832869  23.2795870  22.4148546  87.6208091  23.6892878  22.1982253
  86.9611137  22.3395312  22.3848740  97.7943559  13.3266995  27.5609177
  97.2908355  13.2897130  26.7476982  98.0874166  14.2359737  27.6205833
  94.0386445  13.4105724  26.5675359  94.9039442  13.2148533  26.2081248
  94.1063954  13.1816076  27.4944715  96.9130037  24.9788266  21.5785114
  96.3851398  24.2441026  21.2658351  96.4117539  25.7562942  21.3325082
 101.8922883  23.1737287  26.6952160 101.2346557  23.8636548  26.7832289
 102.6963282  23.5633718  27.0386146  91.6448764  15.6407932  23.9391725
  92.2192516  15.4183114  23.2064918  92.2319747  15.7096627  24.6920327
  97.9650716  31.5065983  17.5016773  97.2912414  31.8097680  18.1101731
  98.3516538  32.3095064  17.1522230  97.1809172  19.0031115  26.9914442
  96.2631734  19.2246062  26.8336130  97.5969316  19.0777425  26.1326150
 101.4690138  26.5087661  22.8735245 101.0152465  25.6678571  22.9300435
 100.8384104  27.1449059  23.2110025  99.9123077  28.3464157  23.8085063
 100.2046051  28.9069214  23.0897428 100.4221697  28.6392718  24.5638222
  86.8059041  20.6186585  23.0859279  86.6083440  20.0255946  22.3610346
  86.2505705  20.3138795  23.8035218  94.7855764  20.5109692  25.2053872
  94.8404374  19.5583528  25.1296349  93.9746966  20.6669131  25.6895171
  92.7248124  19.1286751  22.9644251  91.9115990  19.4280922  23.3709443
  93.2207118  18.7342440  23.6818733  94.8756702  29.1244508  24.8978516
  94.8332881  29.3505355  23.9687048  95.7919401  28.8907883  25.0464317
  98.3222336  19.5928576  31.7959145  98.6771724  19.8200049  32.6553611
  98.9694467  19.9246953  31.1736400  92.2162199  16.7005107  28.5805486
  92.8561578  16.5593866  27.8828449  91.3839729  16.4139620  28.2044088
 104.0789452  24.7823539  27.5119746 104.5125959  24.6898828  28.3602800
 104.7921033  24.7581039  26.8739762  92.9922503  26.0007537  24.6940479
  93.7863101  25.5057858  24.4923054  92.2814195  25.4725401  24.3308184
  97.8117347  28.3825633  29.0452846  97.8654370  28.9516569  29.8130562
  96.9432129  28.5527518  28.6806883  89.3005266  20.1450619  20.7700231
  88.3702854  20.0835075  20.9870193  89.3962738  19.6226572  19.9736873
  89.2190815  16.6705432  23.3578473  89.4797633  17.5850765  23.2487633
  90.0407988  16.2029875  23.5075086  90.6915741  18.0843189  30.5277297
  91.3638794  17.8760551  29.8789946  89.8645527  17.8865275  30.0882530
  96.5941313  14.7105130  32.5442958  95.9469228  15.4095080  32.4507435
  97.3642328  15.1441274  32.9119207 100.0020111  24.9753982  35.6193512
  99.8505617  24.7464534  34.7023595  99.9924790  25.9324584  35.6324857
  96.7705447  22.5485895  30.6039778  97.6997507  22.6997055  30.4308745
  96.3496477  22.6369916  29.7488425  95.5693779  26.5736559  28.3738316
  95.4304865  26.2055344  29.2464254  94.7808375  27.0884199  28.2022273
  96.1641931  31.6745656  19.7163852  96.3393687  31.2033699  20.5309475
  95.4774719  32.3011422  19.9445113  97.1198994  25.9518162  25.7627153
  96.7848827  25.9118932  26.6584803  96.6202940  25.2862878  25.2897564
  91.0943238  21.3585792  31.2879735  90.9563036  20.6266031  31.8891274
  92.0048161  21.2694692  31.0063922  93.7225539  21.0705751  30.7763414
  94.4325157  20.4298944  30.7350033  93.6794847  21.3218646  31.6989595
 101.7112317  28.0073105  33.6969993 101.6524863  27.3232325  33.0300577
 102.1131836  28.7492095  33.2450619  92.4354473  18.0570969  32.5959054
  91.8991830  17.6061708  33.2480650  91.8471181  18.1916878  31.8529518
  90.7303016  34.8235019  26.4903712  90.9699614  35.4553543  27.1682731
  89.8872213  34.4723059  26.7769072 101.7129725  25.9712689  31.9283973
 100.8256503  25.6338611  32.0510372 102.2828276  25.2395720  32.1652739
  83.3658872  22.3036781  25.2527025  84.0529912  21.9898511  24.6648040
  83.2107000  23.2078145  24.9794276  88.1693594  17.1926977  29.6812048
  88.0851783  16.5852647  28.9462458  87.3476300  17.6835995  29.6821545
  95.2430878  30.6314141  28.8945216  95.1701049  31.4369113  29.4064521
  94.8008271  30.8306107  28.0693238  95.0320658  29.8685911  22.4048038
  94.2488179  30.4107591  22.4986262  95.7313403  30.3859891  22.8042279
  97.7029561  30.5300975  31.0503375  98.4157534  31.1648440  30.9779276
  97.2119590  30.6264841  30.2343377  94.9252276  17.8197924  24.7753928
  94.5550064  17.2668964  25.4634833  95.4211369  17.2156057  24.2228928
  92.7541475  28.2795419  31.8708946  93.4550935  28.9131902  32.0238340
  92.2836590  28.6210150  31.1104585 100.5542761  20.8340026  29.6961496
  99.9014211  21.0815933  29.0413949 100.9323141  20.0204164  29.3623973
  97.5149935  30.8699719  23.7989666  97.6972329  30.0521375  24.2617419
  98.3382921  31.0867411  23.3614556  97.8492100  29.7967904  21.0604715
  98.3779867  29.2860359  20.4474877  98.1120320  29.4810435  21.9250248
  96.6030334  21.5759837  36.1827533  95.9270971  21.4753966  36.8529908
  97.4257968  21.4199051  36.6463530  88.3509193  27.8131774  28.8040049
  88.9362630  27.0675462  28.9367953  88.1534032  28.1235730  29.6876712
  91.2047848  30.8483021  23.8202491  90.5358224  31.3329149  23.3366531
  91.0660718  31.0952241  24.7345869  82.9426848  20.3837374  27.5244492
  82.9810947  19.8500965  28.3181610  82.4367141  19.8572579  26.9055469
  95.3453117  32.8826765  30.4185149  95.8971425  33.0458386  31.1834234
  95.6859310  33.4731202  29.7465174  90.3217610  15.2301914  31.0207034
  90.3858937  16.0916745  30.6084432  90.2584730  14.6175916  30.2879392
  89.7969883  17.3025047  34.6680068  90.4241921  16.9202124  35.2817593
  88.9397801  17.0839249  35.0335761 100.1963991  27.7088022  36.2733804
 100.7403895  28.3217980  35.7788758  99.6150836  28.2667600  36.7900817
  86.5735425  19.1101476  20.5998423  86.8688866  18.2012154  20.5465477
  85.6723461  19.0889215  20.2779425  98.4821504  30.8308740  27.4048831
  98.3572644  30.0298480  26.8959777  99.1400595  31.3254933  26.9162801
  90.1029672  17.1857473  26.5825972  89.3816258  17.7993440  26.4433445
  90.8922928  17.7215237  26.5042618 100.5456413  28.6317760  29.0328382
  99.5986748  28.5123111  28.9606708 100.8939186  27.7440258  29.1154643
  92.9055986  14.5211899  32.8566623  93.4290388  14.7674196  33.6192933
  92.6868319  15.3531934  32.4369761  88.3023267  16.7915574  20.7237748
  87.9735973  15.9112953  20.5412854  88.6562638  16.7363242  21.6114137
  97.5502846  28.4270476  25.2332734  97.4027808  27.4987184  25.4140304
  98.3756339  28.4490567  24.7489809  91.4165090  17.0788543  21.0913226
  91.7561163  17.6074465  20.3691834  91.8637211  17.4168950  21.8671792
 101.1536968  29.2499035  26.3197607 102.0783515  29.0441896  26.1822058
 100.9852271  29.0015436  27.2286948  94.1108531  15.4625594  30.5416294
  93.7705351  14.6633407  30.9436974  93.4047537  15.7627305  29.9693127
  92.2863582  19.2394027  26.8035596  92.1408162  19.5534330  27.6959877
  91.8088785  19.8578928  26.2506494  94.1459964  16.2296575  26.8516485
  94.1321533  15.3337669  26.5148783  94.8632393  16.2367239  27.4854771
  95.9986095  16.6633915  28.8969613  95.7403873  17.5850986  28.8953943
  95.4671136  16.2664350  29.5870077 100.9432284  29.7684703  21.6759698
 101.1169161  29.2031125  20.9233550 101.4361175  30.5685597  21.4939188
  86.7609244  21.7799372  29.7423257  86.2162712  22.5559180  29.8743531
  87.6388594  22.1270176  29.5842378  87.5475266  20.9069268  32.6353414
  86.8057002  21.0551903  33.2218044  87.2268010  21.1677534  31.7720163
  95.4918928  30.4485246  32.4333804  95.8006055  30.2034393  33.3056503
  96.2894410  30.6531885  31.9452674  95.5139540  32.6023156  24.6639180
  95.0744531  32.1099534  25.3572037  96.2647657  32.0596123  24.4231255
  87.9931879  28.7934697  24.6663808  88.8189899  28.4938469  24.2862452
  87.6425931  28.0242319  25.1153597  92.9613412  28.1461165  26.7361482
  92.3393422  27.4831870  26.4363710  93.6318279  28.1722297  26.0535130
  86.1940484  26.7121023  25.6252742  85.3572393  26.2843197  25.4436743
  86.1664130  26.9053466  26.5623533  93.0337940  16.6242953  36.3293988
  93.0826095  17.5005076  35.9471757  93.5760454  16.0820346  35.7565631
 103.5192786  27.1684076  35.6095125 102.7288329  27.1508215  35.0699624
 103.2826140  27.7072370  36.3644162 103.6390661  24.0176543  32.9227853
 103.6888666  23.8526550  33.8643376 103.5304584  23.1503802  32.5325734
  92.5226919  26.6965088  20.2119942  92.6715040  27.3800553  19.5586615
  93.3293363  26.6770178  20.7269398 100.9294423  20.0007471  34.2387160
 101.8304286  19.8613935  33.9471158 101.0042398  20.1661925  35.1785338
  95.2637228  17.3774325  33.0840347  94.3940538  17.6707891  32.8122935
  95.4996709  17.9614770  33.8047610 103.3896046  21.5606099  31.6349933
 103.8650167  21.7533745  30.8268784 102.4661611  21.6165284  31.3893317
  90.2779552  22.7230266  21.2181011  90.0325594  21.8192596  21.4161221
  90.4475467  22.7247416  20.2760489  97.9676262  13.5953942  30.6005767
  98.4858206  14.3314969  30.2752255  97.6131395  13.9017936  31.4352526
  89.5475200  18.4558623  18.7167173  88.8544445  18.5302978  18.0607209
  89.3026952  17.6918967  19.2388690  96.0222325  29.1913219  17.6831690
  95.4496292  29.8103406  17.2302162  96.5955119  29.7412580  18.2171612
 102.0897715  18.4371859  29.8678239 103.0415138  18.5369956  29.8890463
 101.9201165  17.6450127  30.3776323 100.1112094  15.5227442  30.0537640
  99.5162026  15.8032455  29.3584128  99.8261791  16.0121343  30.8254381
  96.2907816  24.5791778  36.4848399  97.2110825  24.7570377  36.6788446
  96.2557399  23.6347823  36.3328099  85.5089981  19.7730371  25.4101674
  85.1892765  18.9195679  25.1176048  84.9623409  19.9878949  26.1659641
  89.2869888  22.4892812  29.1271180  89.5055898  23.4209920  29.1459214
  89.6995662  22.1300787  29.9125984  94.1597754  18.0626018  38.5173929
  94.0594481  19.0120375  38.4486020  93.9419296  17.7344257  37.6449999
  85.3778241  23.3933283  27.3794796  84.6841712  22.9787235  26.8664750
  86.1251232  23.4353819  26.7828214  94.0229024  21.4923157  37.3338991
  93.5396105  22.2923517  37.5402880  94.1089963  21.5031102  36.3806435
  87.2914983  23.3251536  25.2560810  87.2685672  23.4239224  24.3042694
  87.6015620  24.1716687  25.5777977  89.9502361  25.3827692  29.3707425
  90.9045615  25.3511634  29.3037356  89.7514885  24.9218315  30.1857651
  90.5401743  23.9528808  31.9378222  91.3594632  24.4472886  31.9613060
  90.8138551  23.0360776  31.9095790  88.3052590  30.9247311  26.3877623
  88.1707058  30.1647712  25.8215621  87.8884652  31.6488211  25.9206412
  91.4621716  31.8216628  26.5996065  91.3454100  32.7662061  26.4974756
  90.6414162  31.5190190  26.9881865  85.7936658  18.2866941  32.6370420
  86.4395521  17.7765895  33.1257645  85.5853809  19.0235623  33.2113845
  98.3190050  25.3547789  38.1362560  99.1881209  25.5288441  37.7749195
  97.8396801  26.1742206  38.0138289  92.4876230  32.4744890  29.8151994
  93.3903477  32.5068500  30.1318489  92.2613600  31.5445341  29.8298330
  94.2429832  31.2275876  26.4762072  93.2925463  31.2277738  26.3626445
  94.5462318  30.4808611  25.9598107  90.1334149  15.4334558  36.7345434
  90.9965610  15.0771363  36.9448758  89.5599559  15.0948453  37.4220838
 102.6459048  38.8699319  23.4666250 102.0823913  38.7789256  22.6982538
 102.5311443  38.0499224  23.9468743 100.1923479  40.3650511  26.3050471
 100.9844771  40.0241336  25.8896770 100.4320130  40.4745486  27.2252624
 102.1514233  39.6259424  19.1767850 102.9245109  39.0788411  19.0380725
 102.5039632  40.4903674  19.3882311 103.9899276  40.9535806  32.3834749
 103.6989142  41.8581437  32.2681415 104.6256260  40.9952334  33.0978819
 102.4001643  37.0911019  25.4121247 101.4752139  36.9587233  25.6198939
 102.6486056  37.8705238  25.9091190  99.7610454  36.7344292  26.2465036
  99.8902835  36.9878771  27.1604448  99.0807905  37.3272000  25.9269691
 103.9309941  47.4041542  22.3455510 103.8533971  48.3549367  22.4243991
 103.3271584  47.0587415  23.0030437 102.9209740  39.3731082  27.1189143
 103.4911097  39.8018350  26.4806627 103.5117852  39.0913667  27.8173329
 103.4134907  34.5394509  35.3650154 102.7833567  35.2210790  35.5985551
 103.3070995  34.4277591  34.4203293  98.7079879  34.2066305  26.2916078
  97.9178933  34.4623834  25.8156189  99.1991126  35.0214643  26.3968119
 100.6594625  34.5710885  23.2499555  99.8625788  34.6829579  23.7683051
 100.4320217  34.9097537  22.3840446  96.9917582  34.4596796  28.7231069
  97.2425621  35.3443806  28.9888645  97.5277131  34.2801397  27.9506161
 102.6915649  28.8415275  37.7275405 102.2982595  28.2881474  38.4023050
 103.5081790  29.1525854  38.1181923  99.6577707  40.2799133  21.6388975
 100.1702228  41.0742384  21.7894540 100.3100420  39.5825424  21.5722577
 101.4672592  43.3964890  23.7211728 101.6439220  44.3182854  23.5332712
 102.2629425  43.0823309  24.1506108 100.7524948  35.4429522  33.5973892
 100.6378464  34.5414779  33.8980990  99.8969466  35.6893218  33.2458708
 102.5903907  44.9143063  29.7222071 103.1411332  44.7860127  28.9499065
 101.7515383  45.2137952  29.3716963  97.6226624  38.6087788  22.4148546
  98.4601846  39.0184796  22.1982253  97.8004892  37.6687230  22.3848740
 102.4842519  30.9699850  23.9391725 103.0586271  30.7475031  23.2064918
 103.0713501  31.0388544  24.6920327  97.6452795  35.9478503  23.0859279
  97.4477195  35.3547864  22.3610346  97.0899459  35.6430713  23.8035218
 103.5641879  34.4578669  22.9644251 102.7509744  34.7572840  23.3709443
 104.0600873  34.0634358  23.6818733 103.0555953  32.0297025  28.5805486
 103.6955333  31.8885784  27.8828449 102.2233484  31.7431538  28.2044088
 103.8316257  41.3299455  24.6940479 104.6256856  40.8349775  24.4923054
 103.1207950  40.8017318  24.3308184 100.1399021  35.4742537  20.7700231
  99.2096609  35.4126992  20.9870193 100.2356493  34.9518490  19.9736873
 100.0584570  31.9997350  23.3578473 100.3191387  32.9142683  23.2487633
 100.8801742  31.5321792  23.5075086 101.5309495  33.4135107  30.5277297
 102.2032549  33.2052469  29.8789946 100.7039282  33.2157193  30.0882530
 101.9336992  36.6877710  31.2879735 101.7956790  35.9557949  31.8891274
 102.8441916  36.5986610  31.0063922 103.2748227  33.3862887  32.5959054
 102.7385584  32.9353626  33.2480650 102.6864936  33.5208796  31.8529518
 101.5696771  50.1526936  26.4903712 101.8093369  50.7845460  27.1682731
 100.7265967  49.8014976  26.7769072  94.2052626  37.6328698  25.2527025
  94.8923666  37.3190428  24.6648040  94.0500755  38.5370063  24.9794276
  99.0087348  32.5218895  29.6812048  98.9245537  31.9144564  28.9462458
  98.1870055  33.0127913  29.6821545 103.5935230  43.6087336  31.8708946
 104.2944689  44.2423819  32.0238340 103.1230344  43.9502068  31.1104585
  99.1902948  43.1423691  28.8040049  99.7756384  42.3967379  28.9367953
  98.9927786  43.4527648  29.6876712 102.0441603  46.1774939  23.8202491
 101.3751978  46.6621066  23.3366531 101.9054472  46.4244159  24.7345869
  93.7820602  35.7129292  27.5244492  93.8204702  35.1792882  28.3181610
  93.2760895  35.1864497  26.9055469 101.1611365  30.5593832  31.0207034
 101.2252691  31.4208663  30.6084432 101.0978485  29.9467834  30.2879392
 100.6363637  32.6316965  34.6680068 101.2635676  32.2494042  35.2817593
  99.7791556  32.4131167  35.0335761  97.4129180  34.4393394  20.5998423
  97.7082621  33.5304072  20.5465477  96.5117216  34.4181133  20.2779425
 100.9423427  32.5149390  26.5825972 100.2210013  33.1285358  26.4433445
 101.7316683  33.0507155  26.5042618 103.7449740  29.8503817  32.8566623
 104.2684142  30.0966113  33.6192933 103.5262074  30.6823852  32.4369761
  99.1417021  32.1207491  20.7237748  98.8129728  31.2404870  20.5412854
  99.4956392  32.0655160  21.6114137 102.2558845  32.4080461  21.0913226
 102.5954917  32.9366382  20.3691834 102.7030965  32.7460867  21.8671792
 104.9502285  30.7917512  30.5416294 104.6099106  29.9925325  30.9436974
 104.2441292  31.0919223  29.9693127 103.1257336  34.5685945  26.8035596
 102.9801917  34.8826248  27.6959877 102.6482540  35.1870845  26.2506494
  97.6002998  37.1091289  29.7423257  97.0556466  37.8851097  29.8743531
  98.4782348  37.4562094  29.5842378  98.3869020  36.2361186  32.6353414
  97.6450756  36.3843821  33.2218044  98.0661764  36.4969451  31.7720163
  98.8325634  44.1226614  24.6663808  99.6583654  43.8230386  24.2862452
  98.4819686  43.3534237  25.1153597 103.8007167  43.4753083  26.7361482
 103.1787176  42.8123788  26.4363710 104.4712034  43.5014214  26.0535130
  97.0334239  42.0412941  25.6252742  96.1966147  41.6135115  25.4436743
  97.0057884  42.2345384  26.5623533 103.8731694  31.9534871  36.3293988
 103.9219850  32.8296993  35.9471757 104.4154209  31.4112264  35.7565631
 103.3620674  42.0257006  20.2119942 103.5108794  42.7092470  19.5586615
 104.1687117  42.0062096  20.7269398 101.1173307  38.0522184  21.2181011
 100.8719349  37.1484514  21.4161221 101.2869221  38.0539334  20.2760489
 100.3868954  33.7850541  18.7167173  99.6938199  33.8594896  18.0607209
 100.1420706  33.0210885  19.2388690  96.3483735  35.1022289  25.4101674
  96.0286520  34.2487597  25.1176048  95.8017164  35.3170867  26.1659641
 100.1263643  37.8184730  29.1271180 100.3449653  38.7501838  29.1459214
 100.5389417  37.4592704  29.9125984 104.9991508  33.3917936  38.5173929
 104.8988235  34.3412293  38.4486020 104.7813050  33.0636175  37.6449999
  96.2171995  38.7225200  27.3794796  95.5235467  38.3079153  26.8664750
  96.9644986  38.7645737  26.7828214 104.8622778  36.8215074  37.3338991
 104.3789860  37.6215435  37.5402880 104.9483717  36.8323019  36.3806435
  98.1308738  38.6543454  25.2560810  98.1079426  38.7531141  24.3042694
  98.4409374  39.5008605  25.5777977 100.7896116  40.7119609  29.3707425
 101.7439369  40.6803552  29.3037356 100.5908639  40.2510233  30.1857651
 101.3795498  39.2820725  31.9378222 102.1988387  39.7764804  31.9613060
 101.6532306  38.3652693  31.9095790  99.1446345  46.2539229  26.3877623
  99.0100812  45.4939630  25.8215621  98.7278407  46.9780129  25.9206412
 102.3015470  47.1508546  26.5996065 102.1847855  48.0953978  26.4974756
 101.4807917  46.8482107  26.9881865  96.6330412  33.6158859  32.6370420
  97.2789276  33.1057813  33.1257645  96.4247563  34.3527541  33.2113845
 103.3269985  47.8036808  29.8151994 104.2297231  47.8360418  30.1318489
 103.1007355  46.8737259  29.8298330 100.9727903  30.7626476  36.7345434
 101.8359365  30.4063281  36.9448758 100.3993314  30.4240371  37.4220838
 104.6214357  51.0421209  27.5244492 104.6598456  50.5084800  28.3181610
 104.1154650  50.5156415  26.9055469   1.3096320  47.8906682  85.6923163
   0.6742153  47.9641309  86.4044068   0.9793727  48.4800281  85.0142243
   3.4750564  42.7705337  85.9019177   4.3868420  43.0032724  85.7266874
   2.9660211  43.3542381  85.3394256   5.9609378  48.6885593  90.6477122
   5.2760416  49.0684495  90.0974155   6.0453227  49.2980920  91.3809070
  12.4212131  45.5556256  91.7679794  11.6675839  44.9863654  91.6123799
  12.5559672  45.5218921  92.7150429   6.0987779  46.6941186  86.4159016
   5.3217222  46.3552346  85.9714178   6.7779260  46.6993809  85.7413981
   4.3379086  46.1675167  93.0725624   3.6802760  46.8574429  93.1605753
   5.1419485  46.5571599  93.4159610   3.1484545  44.5219540  91.1229566
   3.6616426  45.1549532  91.6251275   3.7985769  43.9220736  90.7572926
   3.9146341  49.5025542  89.2508708   3.4608668  48.6616451  89.3073899
   3.2840308  50.1386940  89.5883488   2.3579280  51.3402038  90.1858526
   2.6502255  51.9007095  89.4670892   2.8677901  51.6330599  90.9411685
   6.4976276  45.7084893  88.8781938   6.3594175  45.8986489  87.9503127
   6.1412495  46.4704276  89.3349989   6.5245656  47.7761420  93.8893209
   6.9582162  47.6836709  94.7376263   7.2377236  47.7518920  93.2513225
   2.5014389  46.2912077  82.4137677   1.8843560  45.5658906  82.3170730
   2.0330877  47.0521438  82.0704751   8.6403268  44.3758787  93.0673999
   8.6293145  45.2583503  92.6967932   7.7720648  44.0230338  92.8728536
   1.8703292  47.4290109  88.9994130   0.9359570  47.5491571  88.8298835
   2.0479960  46.5262576  88.7354140   5.2575843  43.2707428  89.5344165
   5.7236295  44.1035420  89.4604467   5.7083344  42.8052410  90.2389423
   3.3252074  49.6151249  86.5330317   3.6011918  49.5007844  87.4424191
   2.4556573  49.2168734  86.4942490   0.9277707  53.8246621  93.7822295
   0.8028847  53.0236361  93.2733241   1.5856799  54.3192814  93.2936265
   3.5993171  52.2436916  92.6971070   4.5239718  52.0379777  92.5595521
   3.4308474  51.9953317  93.6060412   3.3888487  52.7622584  88.0533162
   3.5625365  52.1969006  87.3007014   3.8817378  53.5623478  87.8712652
   9.2427878  45.5259006  89.6723461   9.6859024  44.7766332  89.2742585
   8.3654389  45.5169143  89.2897193   4.3763660  52.0789348  85.1530060
   5.0714564  52.6996041  85.3717375   4.7186810  51.2284699  85.4282438
   6.2755083  49.5289053  86.6817391   6.8006407  49.8676326  85.9566711
   6.1877435  48.5936069  86.4980525   8.7860743  46.9964245  92.0645909
   9.6207634  47.4354049  92.2283469   8.9219872  46.5202898  91.2454155
   1.6875788  52.4688250  85.1913736   2.6206461  52.4033811  85.3946611
   1.5999001  53.3044517  84.7328268   4.3163805  51.7854120  82.1517683
   4.2377436  51.4513984  83.0453441   5.1373471  52.2775888  82.1509156
  12.8318546  45.7131866  94.5000039  13.5621934  45.4517154  95.0607742
  12.2225491  44.9760588  94.5402107   2.7424543  39.3377441  87.6779642
   1.8550398  39.6227091  87.4599836   3.1578532  39.1771204  86.8306919
   1.8867756  49.1022115  81.7727662   2.5903607  49.3072118  82.3885317
   1.1630405  49.6698877  82.0376745   2.7165567  44.8531977  87.8929932
   2.6600768  45.3100528  87.0537564   3.2693909  44.0922661  87.7152775
   6.5270373  40.6421709  88.7180051   6.2707307  40.2418344  89.5488259
   5.9023241  41.3565503  88.5930191  10.8382710  43.3817782  91.2251343
  10.2782268  43.4510971  91.9982905  10.2326214  43.2058766  90.5050839
   3.7954454  49.5404645  83.8226122   4.6300058  49.1085843  83.6403597
   3.6338797  49.3686658  84.7503016   3.4500346  46.0436758  85.1882461
   3.3949150  45.8781029  84.2470905   2.8246401  46.7512791  85.3444651
  12.4238729  60.0574296  93.9181299  13.0617139  59.9381043  93.2144639
  12.3059572  61.0055140  93.9769251   9.2328435  60.0101724  93.8542823
   8.8946947  59.8942789  92.9663358  10.1018203  59.6092889  93.8343829
   5.0915251  61.8637200  89.8439714   4.5280116  61.7727137  89.0756002
   4.9767646  61.0437105  90.3242207  10.6714810  65.5308168  85.1554179
  10.0202789  66.1162248  84.7688193  11.4659172  66.0614363  85.2149217
   4.5970437  62.6197305  85.5541313   5.3701313  62.0726292  85.4154189
   4.9495836  63.4841554  85.7655775   7.3611686  61.3250536  95.3509572
   7.9575258  61.1006558  94.6366535   7.4186658  60.5835281  95.9535020
   6.9336715  58.7789971  83.1859763   7.1862235  58.2571493  82.4243226
   5.9961274  58.6156117  83.2886447  11.9779997  57.7825750  90.9934507
  12.7643087  57.3645173  90.6424924  12.2418702  58.6871842  91.1616155
  12.1490075  63.2198600  85.6923163  11.5135908  63.2933226  86.4044068
  11.8187481  63.8092199  85.0142243  17.3788425  57.7200983  91.8967485
  18.1113596  57.1500200  92.1305315  16.6227780  57.3322583  92.3373991
   6.6533003  60.6818077  85.3884138   6.5369261  60.0062981  86.0565223
   6.7635263  60.1950451  84.5716291   8.9964544  60.1428224  89.0930828
   8.6322751  59.6158845  89.8043749   9.8531660  59.7526693  88.9197313
  14.9013845  51.4322557  96.3562094  14.5697170  52.3017968  96.1323309
  14.3059458  51.1158841  97.0356124   8.6370031  55.1718124  84.0892176
   8.8044434  56.0398360  84.4562647   8.4467200  55.3345406  83.1653465
  11.3945364  63.6335103  95.7558006  11.0946087  64.5360142  95.6473814
  11.0496424  63.3667286  96.6079159   4.8457846  60.0848900  91.7894711
   3.9208342  59.9525114  91.9972403   5.0942259  60.8643119  92.2864653
  14.7942508  56.1517643  93.4355444  13.8859386  56.0833052  93.1414205
  14.7430104  56.6289588  94.2637269   8.6159252  57.6275782  85.0738843
   8.4958877  58.0732832  85.9124323   7.9211840  57.9761099  84.5152381
   6.3766144  70.3979423  88.7228974   6.2990174  71.3487248  88.8017455
   5.7727788  70.0525296  89.3803900  16.6604155  54.3534082  95.2133318
  16.0178535  54.6466615  94.5673112  16.1559083  54.2387002  96.0186514
  14.3144318  58.0997255  85.9019177  15.2262174  58.3324641  85.7266874
  13.8053965  58.6834299  85.3394256   8.9516156  57.4594489  96.9114026
   9.7977351  57.8833903  97.0548675   8.8914794  56.8028114  97.6052590
  12.9213901  63.0823073  93.2932758  12.2922763  63.2468787  92.5908826
  12.5339563  63.4964683  94.0643722  16.8003132  64.0177511  90.6477122
  16.1154171  64.3976412  90.0974155  16.8846982  64.6272838  91.3809070
  12.1015601  55.1198858  98.5695200  11.8576533  55.8740918  98.0329476
  12.3775532  55.4984205  99.4042447  14.0554064  61.6637470  97.2472466
  14.2670959  62.3069230  96.5706847  14.0083812  60.8299787  96.7794396
  11.6580293  54.2755291  94.1509038  10.7964772  54.5736544  94.4425775
  11.6842728  54.4925690  93.2190070   8.4741862  62.8197481  90.5582843
   8.9380208  63.0985184  89.7687466   8.2098661  61.9180926  90.3755934
   7.4110748  58.9420634  87.3672409   8.1134792  59.3941677  87.8346335
   7.0791377  58.3004452  87.9952302  15.1699892  64.5409425  95.4194823
  15.9917336  64.1389613  95.1377505  15.1662295  64.4377660  96.3710939
   3.1050828  57.5648766  89.6273019   2.3081991  57.6767460  90.1456515
   2.8776420  57.9035418  88.7613909  23.2605885  60.8848174  91.7679794
  22.5069593  60.3155572  91.6123799  23.3953426  60.8510838  92.7150429
   8.6504513  65.7561576  87.4434514   8.5150188  66.6013112  87.8719362
   9.1914326  65.9580854  86.6800448   2.1033910  63.2737014  88.0162439
   2.6158431  64.0680265  88.1668004   2.7556623  62.5763305  87.9496040
  11.9996977  49.2792138  95.9733407  11.6561246  50.1693780  95.8972518
  12.3675939  49.0893796  95.1102992  11.9647259  59.2700749  84.4805842
  11.4493883  60.0405354  84.7194230  11.6924568  58.5965885  85.1038904
   9.5494370  54.1150450  89.5391081   8.6935967  53.7257300  89.3596719
   9.9621322  54.1942411  88.6790866  11.0793517  51.6496793  93.9382641
  10.5758313  51.6126928  93.1250446  11.3724124  52.5589536  93.9979297
   7.3236403  51.7335523  92.9448822   8.1889400  51.5378332  92.5854712
   7.3913912  51.5045875  93.8718179  16.9381534  62.0233104  86.4159016
  16.1610976  61.6844263  85.9714178  17.6173014  62.0285727  85.7413981
  11.7533563  57.1427841  86.3065624  11.4483698  57.4573991  87.1575767
  12.7064005  57.2209261  86.3492957  10.1979994  63.3018065  87.9558578
   9.6701356  62.5670824  87.6431815   9.6967497  64.0792741  87.7098546
  15.1772840  61.4967085  93.0725624  14.5196515  62.1866347  93.1605753
  15.9813240  61.8863517  93.4159610   4.9298722  53.9637731  90.3165189
   5.5042474  53.7412912  89.5838382   5.5169704  54.0326425  91.0693790
  13.9878299  59.8511458  91.1229566  14.5010181  60.4841450  91.6251275
  14.6379523  59.2512653  90.7572926   5.2568309  55.9942192  84.3361074
   4.4205621  56.3316879  84.6570349   5.1173079  55.8591172  83.3988211
   7.2321390  50.8378980  89.0440259   6.5785802  50.5227997  88.4196873
   7.1901864  50.2154720  89.7700081   8.3432595  61.1198275  80.9593551
   7.4359656  60.8887528  81.1584700   8.8403627  60.3235894  81.1467532
  11.2500673  69.8295782  83.8790237  10.5762372  70.1327479  84.4875195
  11.6366495  70.6324862  83.5295694  10.4659130  57.3260913  93.3687906
   9.5481691  57.5475860  93.2109594  10.8819274  57.4007224  92.5099613
  11.2494178  58.7252329  88.4990586  11.9965997  59.2373726  88.1897708
  11.5185767  58.4036382  89.3594980   9.5220828  61.2210870  85.4817541
   8.6132047  60.9369903  85.5790010   9.5515912  61.6409948  84.6220848
  14.7540095  64.8317459  89.2508708  14.3002423  63.9908369  89.3073899
  14.1234062  65.4678858  89.5883488  13.6973015  55.7609445  90.4809376
  12.9595772  55.2486832  90.8119618  13.9499789  55.3209827  89.6692653
  13.1973035  66.6693956  90.1858526  13.4896009  67.2299013  89.4670892
  13.7071655  66.9622517  90.9411685  13.7984642  48.5385697  91.0751145
  14.1043519  47.6783061  90.7877060  14.5237247  49.1303318  90.8750139
   8.0705722  58.8339490  91.5827336   8.1254332  57.8813327  91.5069813
   7.2596924  58.9898929  92.0668634   9.2196916  62.7619613  82.8205619
   8.7816346  62.0455472  82.3611257   9.9607357  62.9895728  82.2590711
   6.0098082  57.4516550  89.3417715   5.1965948  57.7510721  89.7482907
   6.5057076  57.0572239  90.0592197   8.1606660  67.4474307  91.2751980
   8.1182839  67.6735153  90.3460512   9.0769359  67.2137682  91.4237781
  11.6072294  57.9158375  98.1732609  11.9621681  58.1429848  99.0327075
  12.2544425  58.2476751  97.5509864  17.3370031  61.0376810  88.8781938
  17.1987929  61.2278406  87.9503127  16.9806249  61.7996193  89.3349989
   5.5012157  55.0234906  94.9578950   6.1411536  54.8823665  94.2601913
   4.6689687  54.7369419  94.5817552  17.3639410  63.1053338  93.8893209
  17.7975917  63.0128627  94.7376263  18.0770991  63.0810838  93.2513225
   6.2772461  64.3237336  91.0713942   7.0713059  63.8287656  90.8696517
   5.5664153  63.7955199  90.7081648   2.5855224  58.4680418  87.1473695
   1.6552812  58.4064873  87.3643657   2.6812696  57.9456371  86.3510336
   2.5040773  54.9935231  89.7351937   2.7647590  55.9080564  89.6261097
   3.3257945  54.5259673  89.8848549  18.2254960  63.1477038  96.4226095
  18.4190850  64.0522849  96.6685370  18.1255578  62.6884457  97.2564680
   9.8791270  53.0334929  98.9216422   9.2319186  53.7324878  98.8280898
  10.6492286  53.4671073  99.2892670  10.0555405  60.8715694  96.9813242
  10.9847465  61.0226853  96.8082209   9.6346435  60.9599714  96.1261888
   9.4491889  69.9975455  86.0937316   9.6243644  69.5263498  86.9082939
   8.7624677  70.6241221  86.3218577  10.4048952  64.2747961  92.1400617
  10.0698784  64.2348731  93.0358267   9.9052897  63.6092677  91.6671027
  13.3408143  61.6203995  82.4137677  12.7237314  60.8950823  82.3170730
  12.8724632  62.3813355  82.0704751   5.1306689  55.8389419  81.5358981
   4.2536156  55.7178220  81.1721228   5.6064442  55.0475498  81.2837870
  14.9979682  64.2942487  98.3057437  14.1106461  63.9568409  98.4283836
  15.5678233  63.5625519  98.5426202   8.3170615  68.1915710  88.7821502
   7.5338137  68.7337390  88.8759726   9.0163361  68.7089689  89.1815743
  11.6267265  54.0010339  91.4255707  12.1235965  53.2480302  91.1056777
  10.8554247  54.0374656  90.8598916  19.4797023  59.7050705  93.0673999
  19.4686899  60.5875420  92.6967932  18.6114402  59.3522256  92.8728536
  12.7097046  62.7582026  88.9994130  11.7753325  62.8783489  88.8298835
  12.8873715  61.8554493  88.7354140   8.2102234  56.1427722  91.1527392
   7.8400022  55.5898763  91.8408297   8.7061327  55.5385856  90.6002392
  16.0969598  58.5999346  89.5344165  16.5630050  59.4327337  89.4604467
  16.5477098  58.1344327  90.2389423  14.1645829  64.9443167  86.5330317
  14.4405673  64.8299762  87.4424191  13.2950327  64.5460652  86.4942490
  14.0686260  50.9679933  93.5735066  13.1549340  51.1984160  93.7417273
  14.4979362  51.0518377  94.4249098  13.8392719  59.1569825  96.0734960
  13.1864169  59.4045732  95.4187413  14.2173099  58.3433963  95.7397437
  10.7999893  69.1929518  90.1763130  10.9822287  68.3751174  90.6390883
  11.6232879  69.4097210  89.7388020  11.1342058  68.1197703  87.4378179
  11.6629825  67.6090158  86.8248341  11.3970278  67.8040233  88.3023712
  11.7671462  69.1538539  93.7822295  11.6422601  68.3528279  93.2733241
  12.4250553  69.6484732  93.2936265   3.3879630  55.5087271  92.9599435
   2.6666216  56.1223239  92.8206909   4.1772886  56.0445036  92.8816081
  13.8306370  66.9547559  95.4101845  12.8836706  66.8352910  95.3380172
  14.1789143  66.0670057  95.4928107   1.5873225  55.1145372  87.1011212
   1.2585931  54.2342751  86.9186318   1.9412595  55.0593041  87.9887601
  10.8352804  66.7500275  91.6106197  10.6877766  65.8216982  91.7913768
  11.6606297  66.7720366  91.1263273   4.7015048  55.4018342  87.4686690
   5.0411120  55.9304263  86.7465298   5.1487168  55.7398748  88.2445256
  14.4386925  67.5728834  92.6971070  15.3633473  67.3671695  92.5595521
  14.2702229  67.3245235  93.6060412   7.3958489  53.7855393  96.9189758
   7.0555309  52.9863206  97.3210438   6.6897495  54.0857104  96.3466591
   8.0474961  50.8704705  95.3717081   8.8701030  50.3965183  95.2495971
   8.2913024  51.6495189  95.8715767   6.6883195  53.8992964  85.6679982
   7.4091558  54.2774216  85.1643699   6.0648499  54.6181841  85.7714960
  10.8314318  54.6038113  86.6038315  11.0477932  55.4862751  86.3027143
  10.3508385  54.2124326  85.8743957   5.5713539  57.5623826  93.1809059
   5.4258120  57.8764129  94.0733341   5.0938743  58.1808726  92.6279958
   7.4309922  54.5526374  93.2289949   7.4171491  53.6567467  92.8922247
   8.1482350  54.5597038  93.8628235   9.2836053  54.9863714  95.2743076
   9.0253831  55.9080785  95.2727407   8.7521093  54.5894149  95.9643540
  14.2282242  68.0914501  88.0533162  14.4019119  67.5260924  87.3007014
  14.7211133  68.8915396  87.8712652   6.8346818  53.4340754  88.4977519
   6.9562729  52.5057400  88.6968407   6.5448861  53.4479440  87.5855834
   9.7038009  51.1195665  91.6344239   9.7259705  51.1834998  90.6796218
  10.1206068  50.2800173  91.8284745  20.0821633  60.8550924  89.6723461
  20.5252779  60.1058249  89.2742585  19.2048143  60.8461061  89.2897193
  15.2157414  67.4081266  85.1530060  15.9108319  68.0287958  85.3717375
  15.5580564  66.5576617  85.4282438  17.1148837  64.8580971  86.6817391
  17.6400161  65.1968244  85.9566711  17.0271190  63.9227986  86.4980525
  16.9240618  62.3406341  99.3001317  16.9738623  62.1756349 100.2416840
  16.8154542  61.4733600  98.9099198   5.8076877  65.0194887  86.5893406
   5.9564997  65.7030351  85.9360079   6.6143321  64.9999977  87.1042862
  14.2144381  58.3237269 100.6160624  15.1154244  58.1843734 100.3244622
  14.2892355  58.4891724 101.5558801  18.4258815  64.7603283  99.5443339
  18.1343624  65.1233263 100.3806800  17.8130947  64.0470291  99.3656671
  19.6254498  62.3256162  92.0645909  20.4601389  62.7645967  92.2283469
  19.7613626  61.8494816  91.2454155  16.6746003  59.8835897  98.0123397
  17.1500125  60.0763544  97.2042248  15.7511569  59.9395083  97.7666780
   3.5629510  61.0460064  87.5954475   3.3175552  60.1422394  87.7934685
   3.7325425  61.0477215  86.6533953  11.2526220  51.9183741  96.9779231
  11.7708164  52.6544768  96.6525719  10.8981353  52.2247734  97.8125990
   2.8325158  56.7788422  85.0940637   2.1394403  56.8532777  84.4380672
   2.5876910  56.0148766  85.6162153  11.5038814  48.3384023  92.4980127
  11.7840568  47.6707212  93.1240554  12.2889421  48.5313119  91.9854791
   9.3072283  67.5143017  84.0605154   8.7346250  68.1333204  83.6075625
   9.8805076  68.0642379  84.5945076  15.3747672  56.7601657  96.2451702
  16.3265095  56.8599755  96.2663926  15.2051123  55.9679926  96.7549787
  13.3962052  53.8457241  96.4311103  12.8011984  54.1262253  95.7357592
  13.1111749  54.3351142  97.2027844  12.5269542  67.7980167  85.1913736
  13.4600216  67.7325729  85.3946611  12.4392755  68.6336434  84.7328268
  15.1557559  67.1146038  82.1517683  15.0771191  66.7805901  83.0453441
  15.9767226  67.6067806  82.1509156  17.8535750  59.9807777  95.3594002
  17.8212070  59.0423778  95.5453686  18.4636374  60.0591814  94.6259827
   9.6919081  58.8503830  81.4021206  10.6378186  58.7210038  81.4709624
   9.3133326  58.1118492  81.8790634  18.0030239  56.7718821  95.4052285
  17.4869287  55.9877277  95.2182214  18.8870187  56.4437537  95.5698805
  15.6640966  50.5159836  91.3648098  15.4665787  50.2074924  92.2491430
  16.2740671  51.2421475  91.4946028  23.6712300  61.0423784  94.5000039
  24.4015689  60.7809072  95.0607742  23.0619246  60.3052506  94.5402107
  21.7527597  59.1831647  95.0974490  21.0260761  59.0487611  94.4890982
  21.3374884  59.4908475  95.9031208   7.8761998  56.7753806  81.3376091
   6.9693454  56.4786919  81.4138805   8.1537979  56.4783625  80.4710378
   9.4924064  51.3190696  87.4920333   8.6824792  50.9737781  87.8675579
  10.1808481  51.0098240  88.0807944  11.4214612  50.3968743  89.1144629
  11.9745651  50.8164196  89.7734652  11.6584699  49.4704491  89.1567585
   6.6460783  53.6340742  81.4788070   7.5079947  53.9595640  81.7383888
   6.8311127  52.8472238  80.9661136  14.7993419  52.5069268  88.6223293
  14.2192088  53.1654072  88.2401346  14.5329352  51.6846613  88.2110711
  13.2496986  51.9074326  90.8244614  13.7496764  52.0190860  90.0158933
  13.8932594  51.6035379  91.4645422  13.5818297  54.6669359  87.6779642
  12.6944152  54.9519009  87.4599836  13.9972286  54.5063122  86.8306919
  16.9332834  54.6915879  91.3933981  17.7093224  55.1812332  91.6658598
  16.2080968  55.1173934  91.8505850  19.3705392  55.4043499  92.4507922
  19.9649883  55.1639235  91.7401230  19.4431976  54.6850629  93.0781458
  12.7261511  64.4314033  81.7727662  13.4297361  64.6364036  82.3885317
  12.0024160  64.9990795  82.0376745  13.5559321  60.1823894  87.8929932
  13.4994523  60.6392446  87.0537564  14.1087664  59.4214579  87.7152775
  17.3664127  55.9713626  88.7180051  17.1101061  55.5710262  89.5488259
  16.7416995  56.6857420  88.5930191  21.6776465  58.7109700  91.2251343
  21.1176023  58.7802889  91.9982905  21.0719968  58.5350684  90.5050839
  14.6348208  64.8696562  83.8226122  15.4693812  64.4377761  83.6403597
  14.4732551  64.6978576  84.7503016  14.2894100  61.3728676  85.1882461
  14.2342904  61.2072947  84.2470905  13.6640156  62.0804709  85.3444651
   7.5990226  50.8736785  84.7667779   7.5868896  51.8178625  84.9236050
   8.4913648  50.6906930  84.4727241  11.4142345  47.4679561  89.0213716
  10.6474741  46.9138048  89.1670399  11.8253050  47.5401430  89.8827868
  23.2632483  75.3866213  93.9181299  23.9010893  75.2672961  93.2144639
  23.1453326  76.3347057  93.9769251  20.0722190  75.3393642  93.8542823
  19.7340701  75.2234706  92.9663358  20.9411958  74.9384807  93.8343829
  15.9309005  77.1929118  89.8439714  15.3673870  77.1019055  89.0756002
  15.8161400  76.3729022  90.3242207  21.5108564  80.8600086  85.1554179
  20.8596544  81.4454166  84.7688193  22.3052927  81.3906281  85.2149217
  15.4364191  77.9489223  85.5541313  16.2095067  77.4018210  85.4154189
  15.7889590  78.8133472  85.7655775  18.2005441  76.6542454  95.3509572
  18.7969013  76.4298476  94.6366535  18.2580412  75.9127199  95.9535020
  17.7730469  74.1081889  83.1859763  18.0255990  73.5863410  82.4243226
  16.8355028  73.9448034  83.2886447  22.8173752  73.1117667  90.9934507
  23.6036841  72.6937090  90.6424924  23.0812456  74.0163760  91.1616155
  22.9883829  78.5490518  85.6923163  22.3529662  78.6225144  86.4044068
  22.6581236  79.1384116  85.0142243  28.2182179  73.0492901  91.8967485
  28.9507351  72.4792117  92.1305315  27.4621535  72.6614501  92.3373991
  17.4926758  76.0109995  85.3884138  17.3763016  75.3354898  86.0565223
  17.6029018  75.5242369  84.5716291  19.8358299  75.4720142  89.0930828
  19.4716506  74.9450763  89.8043749  20.6925415  75.0818611  88.9197313
  25.7407599  66.7614475  96.3562094  25.4090924  67.6309886  96.1323309
  25.1453213  66.4450759  97.0356124  19.4763786  70.5010042  84.0892176
  19.6438188  71.3690278  84.4562647  19.2860955  70.6637323  83.1653465
  22.2339119  78.9627021  95.7558006  21.9339842  79.8652059  95.6473814
  21.8890178  78.6959204  96.6079159  15.6851600  75.4140817  91.7894711
  14.7602097  75.2817032  91.9972403  15.9336014  76.1935037  92.2864653
  25.6336263  71.4809561  93.4355444  24.7253140  71.4124969  93.1414205
  25.5823858  71.9581506  94.2637269  19.4553007  72.9567699  85.0738843
  19.3352632  73.4024750  85.9124323  18.7605595  73.3053017  84.5152381
  17.2159899  85.7271341  88.7228974  17.1383928  86.6779166  88.8017455
  16.6121542  85.3817213  89.3803900  27.4997909  69.6825999  95.2133318
  26.8572289  69.9758532  94.5673112  26.9952838  69.5678920  96.0186514
  25.1538073  73.4289172  85.9019177  26.0655929  73.6616559  85.7266874
  24.6447720  74.0126217  85.3394256  19.7909910  72.7886407  96.9114026
  20.6371106  73.2125821  97.0548675  19.7308548  72.1320031  97.6052590
  23.7607655  78.4114991  93.2932758  23.1316517  78.5760705  92.5908826
  23.3733317  78.8256600  94.0643722  27.6396887  79.3469429  90.6477122
  26.9547925  79.7268330  90.0974155  27.7240736  79.9564755  91.3809070
  22.9409356  70.4490775  98.5695200  22.6970288  71.2032836  98.0329476
  23.2169286  70.8276123  99.4042447  24.8947819  76.9929388  97.2472466
  25.1064714  77.6361148  96.5706847  24.8477567  76.1591704  96.7794396
  22.4974047  69.6047208  94.1509038  21.6358527  69.9028462  94.4425775
  22.5236482  69.8217607  93.2190070  19.3135617  78.1489399  90.5582843
  19.7773962  78.4277102  89.7687466  19.0492415  77.2472844  90.3755934
  18.2504503  74.2712551  87.3672409  18.9528546  74.7233595  87.8346335
  17.9185131  73.6296370  87.9952302  11.9929837  72.5296104  92.6689542
  11.2028891  72.7853633  92.1929653  12.4841084  73.3444442  92.7741583
  26.0093646  79.8701343  95.4194823  26.8311090  79.4681530  95.1377505
  26.0056049  79.7669577  96.3710939  13.9444582  72.8940683  89.6273019
  13.1475746  73.0059377  90.1456515  13.7170175  73.2327335  88.7613909
  34.0999640  76.2140092  91.7679794  33.3463348  75.6447490  91.6123799
  34.2347181  76.1802756  92.7150429  19.4898268  81.0853494  87.4434514
  19.3543942  81.9305030  87.8719362  20.0308080  81.2872772  86.6800448
  12.9427665  78.6028932  88.0162439  13.4552186  79.3972182  88.1668004
  13.5950378  77.9055222  87.9496040  22.8390731  64.6084056  95.9733407
  22.4955001  65.4985697  95.8972518  23.2069694  64.4185713  95.1102992
  10.9076582  76.9317586  88.7922009  11.7451804  77.3414595  88.5755717
  11.0854849  75.9917028  88.7622203  22.8041014  74.5992667  84.4805842
  22.2887637  75.3697272  84.7194230  22.5318322  73.9257803  85.1038904
  20.3888125  69.4442368  89.5391081  19.5329721  69.0549218  89.3596719
  20.8015077  69.5234329  88.6790866  21.9187272  66.9788711  93.9382641
  21.4152067  66.9418846  93.1250446  22.2117878  67.8881454  93.9979297
  18.1630157  67.0627441  92.9448822  19.0283154  66.8670249  92.5854712
  18.2307666  66.8337792  93.8718179  27.7775288  77.3525022  86.4159016
  27.0004731  77.0136181  85.9714178  28.4566769  77.3577645  85.7413981
  22.5927317  72.4719759  86.3065624  22.2877453  72.7865908  87.1575767
  23.5457759  72.5501179  86.3492957  21.0373749  78.6309982  87.9558578
  20.5095110  77.8962742  87.6431815  20.5361252  79.4084659  87.7098546
  26.0166595  76.8259003  93.0725624  25.3590269  77.5158264  93.1605753
  26.8206994  77.2155435  93.4159610  15.7692476  69.2929649  90.3165189
  16.3436228  69.0704830  89.5838382  16.3563459  69.3618343  91.0693790
  24.8272054  75.1803376  91.1229566  25.3403935  75.8133367  91.6251275
  25.4773278  74.5804571  90.7572926  16.0962064  71.3234110  84.3361074
  15.2599376  71.6608796  84.6570349  15.9566833  71.1883089  83.3988211
  18.0715144  66.1670898  89.0440259  17.4179557  65.8519915  88.4196873
  18.0295618  65.5446638  89.7700081  19.1826349  76.4490193  80.9593551
  18.2753411  76.2179446  81.1584700  19.6797381  75.6527812  81.1467532
  22.0894428  85.1587700  83.8790237  21.4156127  85.4619397  84.4875195
  22.4760250  85.9616780  83.5295694  21.3052885  72.6552831  93.3687906
  20.3875446  72.8767778  93.2109594  21.7213028  72.7299142  92.5099613
  22.0887932  74.0544247  88.4990586  22.8359751  74.5665644  88.1897708
  22.3579522  73.7328299  89.3594980  20.3614583  76.5502787  85.4817541
  19.4525802  76.2661820  85.5790010  20.3909666  76.9701866  84.6220848
  25.5933850  80.1609377  89.2508708  25.1396177  79.3200287  89.3073899
  24.9627817  80.7970775  89.5883488  24.5366769  71.0901363  90.4809376
  23.7989526  70.5778749  90.8119618  24.7893543  70.6501745  89.6692653
  24.0366789  81.9985874  90.1858526  24.3289764  82.5590931  89.4670892
  24.5465410  82.2914435  90.9411685  24.6378397  63.8677615  91.0751145
  24.9437274  63.0074978  90.7877060  25.3631002  64.4595235  90.8750139
  10.9302753  74.2708302  89.4632743  10.7327153  73.6777662  88.7383809
  10.3749417  73.9660512  90.1808682  18.9099477  74.1631408  91.5827336
  18.9648086  73.2105244  91.5069813  18.0990679  74.3190847  92.0668634
  20.0590670  78.0911531  82.8205619  19.6210100  77.3747390  82.3611257
  20.8001111  78.3187646  82.2590711  16.8491836  72.7808468  89.3417715
  16.0359702  73.0802638  89.7482907  17.3450831  72.3864157  90.0592197
  19.0000414  82.7766225  91.2751980  18.9576593  83.0027071  90.3460512
  19.9163113  82.5429599  91.4237781  22.4466048  73.2450292  98.1732609
  22.8015436  73.4721765  99.0327075  23.0938179  73.5768669  97.5509864
  28.1763785  76.3668728  88.8781938  28.0381684  76.5570324  87.9503127
  27.8200004  77.1288111  89.3349989  16.3405911  70.3526823  94.9578950
  16.9805291  70.2115582  94.2601913  15.5083442  70.0661337  94.5817552
  28.2033165  78.4345255  93.8893209  28.6369671  78.3420544  94.7376263
  28.9164745  78.4102756  93.2513225  17.1166215  79.6529254  91.0713942
  17.9106814  79.1579574  90.8696517  16.4057908  79.1247117  90.7081648
  13.4248979  73.7972335  87.1473695  12.4946567  73.7356791  87.3643657
  13.5206451  73.2748288  86.3510336  13.3434528  70.3227148  89.7351937
  13.6041345  71.2372482  89.6261097  14.1651700  69.8551591  89.8848549
  29.0648714  78.4768956  96.4226095  29.2584604  79.3814766  96.6685370
  28.9649332  78.0176375  97.2564680  20.7185025  68.3626846  98.9216422
  20.0712940  69.0616796  98.8280898  21.4886040  68.7962990  99.2892670
  20.8949159  76.2007611  96.9813242  21.8241219  76.3518771  96.8082209
  20.4740189  76.2891632  96.1261888  20.2885643  85.3267372  86.0937316
  20.4637399  84.8555415  86.9082939  19.6018431  85.9533138  86.3218577
  21.2442706  79.6039878  92.1400617  20.9092539  79.5640648  93.0358267
  20.7446652  78.9384594  91.6671027  24.1801898  76.9495913  82.4137677
  23.5631069  76.2242741  82.3170730  23.7118386  77.7105273  82.0704751
  15.9700444  71.1681337  81.5358981  15.0929910  71.0470138  81.1721228
  16.4458197  70.3767415  81.2837870  25.8373437  79.6234405  98.3057437
  24.9500216  79.2860327  98.4283836  26.4071988  78.8917436  98.5426202
  19.1564370  83.5207627  88.7821502  18.3731892  84.0629308  88.8759726
  19.8557115  84.0381607  89.1815743  22.4661020  69.3302257  91.4255707
  22.9629720  68.5772219  91.1056777  21.6948001  69.3666574  90.8598916
  30.3190777  75.0342622  93.0673999  30.3080654  75.9167338  92.6967932
  29.4508157  74.6814173  92.8728536  23.5490801  78.0873944  88.9994130
  22.6147079  78.2075407  88.8298835  23.7267469  77.1846411  88.7354140
  19.0495989  71.4719640  91.1527392  18.6793776  70.9190680  91.8408297
  19.5455081  70.8677773  90.6002392  26.9363352  73.9291263  89.5344165
  27.4023804  74.7619255  89.4604467  27.3870853  73.4636245  90.2389423
  25.0039583  80.2735085  86.5330317  25.2799427  80.1591679  87.4424191
  24.1344082  79.8752570  86.4942490  24.9080015  66.2971850  93.5735066
  23.9943095  66.5276077  93.7417273  25.3373116  66.3810294  94.4249098
  24.6786473  74.4861742  96.0734960  24.0257924  74.7337650  95.4187413
  25.0566853  73.6725881  95.7397437  21.6393647  84.5221436  90.1763130
  21.8216042  83.7043091  90.6390883  22.4626633  84.7389128  89.7388020
  21.9735813  83.4489621  87.4378179  22.5023579  82.9382075  86.8248341
  22.2364032  83.1332151  88.3023712  10.6979138  72.7623192  86.9771887
  10.9932579  71.8533871  86.9238940   9.7967173  72.7410932  86.6552889
  22.6065216  84.4830456  93.7822295  22.4816356  83.6820196  93.2733241
  23.2644308  84.9776650  93.2936265  14.2273385  70.8379189  92.9599435
  13.5059970  71.4515157  92.8206909  15.0166640  71.3736954  92.8816081
  24.6700125  82.2839476  95.4101845  23.7230460  82.1644828  95.3380172
  25.0182898  81.3961975  95.4928107  12.4266979  70.4437290  87.1011212
  12.0979685  69.5634669  86.9186318  12.7806350  70.3884959  87.9887601
  21.6746558  82.0792193  91.6106197  21.5271521  81.1508900  91.7913768
  22.5000052  82.1012283  91.1263273  15.5408802  70.7310260  87.4686690
  15.8804875  71.2596181  86.7465298  15.9880923  71.0690666  88.2445256
  25.2780680  82.9020751  92.6971070  26.2027227  82.6963613  92.5595521
  25.1095983  82.6537153  93.6060412  18.2352243  69.1147311  96.9189758
  17.8949064  68.3155124  97.3210438  17.5291250  69.4149021  96.3466591
  18.8868715  66.1996623  95.3717081  19.7094784  65.7257101  95.2495971
  19.1306779  66.9787107  95.8715767  17.5276950  69.2284881  85.6679982
  18.2485312  69.6066134  85.1643699  16.9042254  69.9473758  85.7714960
  21.6708072  69.9330030  86.6038315  21.8871687  70.8154668  86.3027143
  21.1902140  69.5416244  85.8743957  16.4107294  72.8915744  93.1809059
  16.2651875  73.2056047  94.0733341  15.9332497  73.5100644  92.6279958
  18.2703677  69.8818292  93.2289949  18.2565245  68.9859385  92.8922247
  18.9876105  69.8888955  93.8628235  20.1229807  70.3155632  95.2743076
  19.8647585  71.2372702  95.2727407  19.5914848  69.9186066  95.9643540
  25.0675996  83.4206419  88.0533162  25.2412874  82.8552841  87.3007014
  25.5604887  84.2207314  87.8712652  17.6740573  68.7632672  88.4977519
  17.7956484  67.8349318  88.6968407  17.3842615  68.7771358  87.5855834
  20.5431763  66.4487582  91.6344239  20.5653460  66.5126915  90.6796218
  20.9599822  65.6092091  91.8284745  30.9215387  76.1842842  89.6723461
  31.3646533  75.4350167  89.2742585  30.0441898  76.1752978  89.2897193
  26.0551169  82.7373183  85.1530060  26.7502073  83.3579876  85.3717375
  26.3974319  81.8868535  85.4282438  27.9542592  80.1872889  86.6817391
  28.4793916  80.5260162  85.9566711  27.8664944  79.2519904  86.4980525
  27.7634373  77.6698259  99.3001317  27.8132378  77.5048266 100.2416840
  27.6548296  76.8025518  98.9099198  16.6470632  80.3486805  86.5893406
  16.7958752  81.0322269  85.9360079  17.4537075  80.3291895  87.1042862
  25.0538135  73.6529187 100.6160624  25.9547998  73.5135652 100.3244622
  25.1286110  73.8183642 101.5558801  29.2652570  80.0895200  99.5443339
  28.9737378  80.4525181 100.3806800  28.6524701  79.3762209  99.3656671
  30.4648252  77.6548080  92.0645909  31.2995143  78.0937884  92.2283469
  30.6007381  77.1786733  91.2454155  27.5139758  75.2127815  98.0123397
  27.9893880  75.4055461  97.2042248  26.5905323  75.2687001  97.7666780
  14.4023265  76.3751982  87.5954475  14.1569307  75.4714312  87.7934685
  14.5719179  76.3769133  86.6533953  22.0919974  67.2475659  96.9779231
  22.6101918  67.9836685  96.6525719  21.7375107  67.5539652  97.8125990
  13.6718912  72.1080340  85.0940637  12.9788157  72.1824695  84.4380672
  13.4270664  71.3440683  85.6162153  22.3432569  63.6675941  92.4980127
  22.6234322  62.9999130  93.1240554  23.1283176  63.8605037  91.9854791
  20.1466037  82.8434935  84.0605154  19.5740004  83.4625122  83.6075625
  20.7198831  83.3934297  84.5945076  26.2141427  72.0893575  96.2451702
  27.1658850  72.1891673  96.2663926  26.0444877  71.2971844  96.7549787
  24.2355806  69.1749158  96.4311103  23.6405739  69.4554171  95.7357592
  23.9505503  69.6643059  97.2027844  23.3663297  83.1272085  85.1913736
  24.2993970  83.0617647  85.3946611  23.2786510  83.9628352  84.7328268
  25.9951314  82.4437955  82.1517683  25.9164945  82.1097819  83.0453441
  26.8160980  82.9359723  82.1509156  28.6929505  75.3099695  95.3594002
  28.6605825  74.3715695  95.5453686  29.3030128  75.3883731  94.6259827
  20.5312836  74.1795748  81.4021206  21.4771940  74.0501956  81.4709624
  20.1527081  73.4410410  81.8790634  28.8423993  72.1010738  95.4052285
  28.3263042  71.3169195  95.2182214  29.7263942  71.7729455  95.5698805
  26.5034720  65.8451754  91.3648098  26.3059541  65.5366842  92.2491430
  27.1134426  66.5713393  91.4946028  34.5106055  76.3715702  94.5000039
  35.2409443  76.1100990  95.0607742  33.9013000  75.6344424  94.5402107
  32.5921352  74.5123564  95.0974490  31.8654515  74.3779529  94.4890982
  32.1768639  74.8200393  95.9031208  18.7155753  72.1045724  81.3376091
  17.8087208  71.8078837  81.4138805  18.9931734  71.8075542  80.4710378
  20.3317818  66.6482614  87.4920333  19.5218547  66.3029699  87.8675579
  21.0202235  66.3390158  88.0807944  22.2608367  65.7260661  89.1144629
  22.8139405  66.1456114  89.7734652  22.4978453  64.7996409  89.1567585
  17.4854537  68.9632659  81.4788070  18.3473701  69.2887558  81.7383888
  17.6704882  68.1764155  80.9661136  25.6387174  67.8361186  88.6223293
  25.0585843  68.4945990  88.2401346  25.3723107  67.0138530  88.2110711
  24.0890740  67.2366244  90.8244614  24.5890519  67.3482778  90.0158933
  24.7326348  66.9327296  91.4645422  24.4212052  69.9961276  87.6779642
  23.5337907  70.2810927  87.4599836  24.8366041  69.8355040  86.8306919
  27.7726588  70.0207797  91.3933981  28.5486978  70.5104250  91.6658598
  27.0474722  70.4465851  91.8505850  30.2099147  70.7335416  92.4507922
  30.8043637  70.4931152  91.7401230  30.2825730  70.0142547  93.0781458
  23.5655265  79.7605951  81.7727662  24.2691115  79.9655953  82.3885317
  22.8417914  80.3282713  82.0376745  24.3953076  75.5115812  87.8929932
  24.3388277  75.9684364  87.0537564  24.9481418  74.7506497  87.7152775
  28.2057882  71.3005544  88.7180051  27.9494816  70.9002180  89.5488259
  27.5810750  72.0149338  88.5930191  32.5170219  74.0401617  91.2251343
  31.9569777  74.1094807  91.9982905  31.9113723  73.8642602  90.5050839
  25.4741963  80.1988480  83.8226122  26.3087567  79.7669679  83.6403597
  25.3126306  80.0270494  84.7503016  25.1287855  76.7020593  85.1882461
  25.0736659  76.5364865  84.2470905  24.5033910  77.4096626  85.3444651
  18.4383980  66.2028702  84.7667779  18.4262650  67.1470542  84.9236050
  19.3307402  66.0198848  84.4727241  22.2536100  62.7971479  89.0213716
  21.4868496  62.2429966  89.1670399  22.6646805  62.8693348  89.8827868
  34.1026238  90.7158131  93.9181299  34.7404648  90.5964879  93.2144639
  33.9847081  91.6638975  93.9769251  30.9115944  90.6685559  93.8542823
  30.5734456  90.5526624  92.9663358  31.7805712  90.2676724  93.8343829
  26.7702760  92.5221036  89.8439714  26.2067625  92.4310973  89.0756002
  26.6555155  91.7020940  90.3242207  32.3502319  96.1892003  85.1554179
  31.6990298  96.7746084  84.7688193  33.1446681  96.7198198  85.2149217
  26.2757946  93.2781141  85.5541313  27.0488822  92.7310128  85.4154189
  26.6283345  94.1425390  85.7655775  29.0399195  91.9834371  95.3509572
  29.6362767  91.7590394  94.6366535  29.0974167  91.2419117  95.9535020
  28.6124224  89.4373807  83.1859763  28.8649744  88.9155328  82.4243226
  27.6748783  89.2739952  83.2886447  33.6567506  88.4409585  90.9934507
  34.4430596  88.0229008  90.6424924  33.9206211  89.3455677  91.1616155
  33.8277584  93.8782435  85.6923163  33.1923417  93.9517062  86.4044068
  33.4974990  94.4676034  85.0142243  39.0575933  88.3784818  91.8967485
  39.7901105  87.8084035  92.1305315  38.3015289  87.9906419  92.3373991
  28.3320512  91.3401913  85.3884138  28.2156770  90.6646816  86.0565223
  28.4422772  90.8534287  84.5716291  30.6752053  90.8012060  89.0930828
  30.3110260  90.2742681  89.8043749  31.5319169  90.4110529  88.9197313
  36.5801354  82.0906392  96.3562094  36.2484679  82.9601803  96.1323309
  35.9846967  81.7742676  97.0356124  30.3157540  85.8301959  84.0892176
  30.4831943  86.6982196  84.4562647  30.1254709  85.9929241  83.1653465
  33.0732873  94.2918938  95.7558006  32.7733596  95.1943977  95.6473814
  32.7283933  94.0251122  96.6079159  26.5245355  90.7432735  91.7894711
  25.5995851  90.6108949  91.9972403  26.7729768  91.5226954  92.2864653
  36.4730017  86.8101479  93.4355444  35.5646894  86.7416887  93.1414205
  36.4217613  87.2873423  94.2637269  30.2946761  88.2859617  85.0738843
  30.1746386  88.7316668  85.9124323  29.5999349  88.6344935  84.5152381
  38.3391664  85.0117917  95.2133318  37.6966044  85.3050450  94.5673112
  37.8346592  84.8970837  96.0186514  35.9931827  88.7581090  85.9019177
  36.9049683  88.9908477  85.7266874  35.4841474  89.3418134  85.3394256
  30.6303665  88.1178325  96.9114026  31.4764860  88.5417738  97.0548675
  30.5702303  87.4611949  97.6052590  34.6001410  93.7406909  93.2932758
  33.9710272  93.9052623  92.5908826  34.2127072  94.1548518  94.0643722
  38.4790641  94.6761346  90.6477122  37.7941680  95.0560248  90.0974155
  38.5634491  95.2856673  91.3809070  33.7803110  85.7782693  98.5695200
  33.5364042  86.5324754  98.0329476  34.0563041  86.1568041  99.4042447
  35.7341573  92.3221305  97.2472466  35.9458468  92.9653065  96.5706847
  35.6871321  91.4883622  96.7794396  33.3367802  84.9339126  94.1509038
  32.4752281  85.2320380  94.4425775  33.3630237  85.1509525  93.2190070
  30.1529371  93.4781317  90.5582843  30.6167717  93.7569020  89.7687466
  29.8886169  92.5764761  90.3755934  29.0898257  89.6004469  87.3672409
  29.7922301  90.0525513  87.8346335  28.7578886  88.9588288  87.9952302
  22.8323591  87.8588022  92.6689542  22.0422645  88.1145550  92.1929653
  23.3234839  88.6736360  92.7741583  36.8487401  95.1993261  95.4194823
  37.6704845  94.7973448  95.1377505  36.8449804  95.0961495  96.3710939
  24.7838337  88.2232601  89.6273019  23.9869500  88.3351295  90.1456515
  24.5563929  88.5619253  88.7613909  44.9393394  91.5432009  91.7679794
  44.1857102  90.9739407  91.6123799  45.0740935  91.5094674  92.7150429
  30.3292022  96.4145412  87.4434514  30.1937697  97.2596947  87.8719362
  30.8701835  96.6164689  86.6800448  23.7821419  93.9320850  88.0162439
  24.2945940  94.7264100  88.1668004  24.4344132  93.2347140  87.9496040
  33.6784486  79.9375973  95.9733407  33.3348755  80.8277615  95.8972518
  34.0463448  79.7477631  95.1102992  21.7470336  92.2609504  88.7922009
  22.5845558  92.6706512  88.5755717  21.9248604  91.3208946  88.7622203
  33.6434768  89.9284585  84.4805842  33.1281392  90.6989189  84.7194230
  33.3712077  89.2549721  85.1038904  31.2281879  84.7734285  89.5391081
  30.3723476  84.3841136  89.3596719  31.6408831  84.8526246  88.6790866
  32.7581026  82.3080629  93.9382641  32.2545822  82.2710764  93.1250446
  33.0511633  83.2173371  93.9979297  29.0023912  82.3919358  92.9448822
  29.8676909  82.1962167  92.5854712  29.0701421  82.1629710  93.8718179
  38.6169042  92.6816939  86.4159016  37.8398485  92.3428099  85.9714178
  39.2960523  92.6869562  85.7413981  33.4321072  87.8011677  86.3065624
  33.1271207  88.1157826  87.1575767  34.3851514  87.8793097  86.3492957
  31.8767503  93.9601900  87.9558578  31.3488865  93.2254660  87.6431815
  31.3755006  94.7376576  87.7098546  36.8560349  92.1550921  93.0725624
  36.1984024  92.8450182  93.1605753  37.6600749  92.5447352  93.4159610
  26.6086231  84.6221566  90.3165189  27.1829983  84.3996748  89.5838382
  27.1957213  84.6910261  91.0693790  35.6665808  90.5095293  91.1229566
  36.1797690  91.1425285  91.6251275  36.3167032  89.9096489  90.7572926
  26.9355818  86.6526027  84.3361074  26.0993130  86.9900714  84.6570349
  26.7960588  86.5175007  83.3988211  28.9108899  81.4962815  89.0440259
  28.2573311  81.1811832  88.4196873  28.8689373  80.8738556  89.7700081
  30.0220104  91.7782110  80.9593551  29.1147165  91.5471364  81.1584700
  30.5191136  90.9819730  81.1467532  32.1446639  87.9844749  93.3687906
  31.2269200  88.2059696  93.2109594  32.5606783  88.0591059  92.5099613
  32.9281687  89.3836164  88.4990586  33.6753506  89.8957562  88.1897708
  33.1973276  89.0620217  89.3594980  31.2008337  91.8794705  85.4817541
  30.2919556  91.5953738  85.5790010  31.2303421  92.2993784  84.6220848
  36.4327604  95.4901295  89.2508708  35.9789932  94.6492205  89.3073899
  35.8021571  96.1262693  89.5883488  35.3760524  86.4193281  90.4809376
  34.6383281  85.9070667  90.8119618  35.6287298  85.9793662  89.6692653
  34.8760544  97.3277791  90.1858526  35.1683518  97.8882848  89.4670892
  35.3859164  97.6206352  90.9411685  35.4772151  79.1969533  91.0751145
  35.7831028  78.3366896  90.7877060  36.2024756  79.7887153  90.8750139
  21.7696507  89.6000219  89.4632743  21.5720907  89.0069580  88.7383809
  21.2143171  89.2952429  90.1808682  29.7493231  89.4923326  91.5827336
  29.8041841  88.5397162  91.5069813  28.9384433  89.6482765  92.0668634
  30.8984425  93.4203449  82.8205619  30.4603855  92.7039308  82.3611257
  31.6394866  93.6479564  82.2590711  27.6885591  88.1100385  89.3417715
  26.8753456  88.4094556  89.7482907  28.1844585  87.7156074  90.0592197
  29.8394169  98.1058142  91.2751980  29.7970348  98.3318989  90.3460512
  30.7556868  97.8721517  91.4237781  33.2859803  88.5742210  98.1732609
  33.6409190  88.8013683  99.0327075  33.9331934  88.9060587  97.5509864
  39.0157540  91.6960646  88.8781938  38.8775438  91.8862242  87.9503127
  38.6593758  92.4580029  89.3349989  27.1799666  85.6818741  94.9578950
  27.8199045  85.5407500  94.2601913  26.3477196  85.3953254  94.5817552
  39.0426919  93.7637173  93.8893209  39.4763426  93.6712462  94.7376263
  39.7558500  93.7394673  93.2513225  27.9559970  94.9821171  91.0713942
  28.7500568  94.4871492  90.8696517  27.2451662  94.4539035  90.7081648
  24.2642733  89.1264253  87.1473695  23.3340321  89.0648709  87.3643657
  24.3600205  88.6040206  86.3510336  24.1828282  85.6519066  89.7351937
  24.4435099  86.5664399  89.6261097  25.0045454  85.1843509  89.8848549
  39.9042469  93.8060874  96.4226095  40.0978359  94.7106684  96.6685370
  39.8043087  93.3468293  97.2564680  31.5578779  83.6918764  98.9216422
  30.9106695  84.3908714  98.8280898  32.3279795  84.1254908  99.2892670
  31.7342914  91.5299529  96.9813242  32.6634974  91.6810689  96.8082209
  31.3133944  91.6183550  96.1261888  32.0836461  94.9331796  92.1400617
  31.7486293  94.8932566  93.0358267  31.5840406  94.2676512  91.6671027
  35.0195652  92.2787830  82.4137677  34.4024823  91.5534659  82.3170730
  34.5512141  93.0397191  82.0704751  26.8094198  86.4973255  81.5358981
  25.9323665  86.3762056  81.1721228  27.2851951  85.7059333  81.2837870
  36.6767191  94.9526323  98.3057437  35.7893970  94.6152245  98.4283836
  37.2465742  94.2209354  98.5426202  29.9958124  98.8499545  88.7821502
  29.2125646  99.3921225  88.8759726  30.6950870  99.3673525  89.1815743
  33.3054774  84.6594175  91.4255707  33.8023474  83.9064137  91.1056777
  32.5341756  84.6958491  90.8598916  41.1584532  90.3634540  93.0673999
  41.1474408  91.2459256  92.6967932  40.2901911  90.0106091  92.8728536
  34.3884555  93.4165862  88.9994130  33.4540834  93.5367324  88.8298835
  34.5661224  92.5138329  88.7354140  29.8889743  86.8011558  91.1527392
  29.5187531  86.2482598  91.8408297  30.3848836  86.1969691  90.6002392
  37.7757107  89.2583181  89.5344165  38.2417559  90.0911173  89.4604467
  38.2264607  88.7928163  90.2389423  35.8433338  95.6027002  86.5330317
  36.1193182  95.4883597  87.4424191  34.9737836  95.2044487  86.4942490
  35.7473769  81.6263768  93.5735066  34.8336849  81.8567995  93.7417273
  36.1766871  81.7102212  94.4249098  35.5180228  89.8153660  96.0734960
  34.8651678  90.0629567  95.4187413  35.8960608  89.0017798  95.7397437
  32.4787402  99.8513353  90.1763130  32.6609796  99.0335009  90.6390883
  33.3020388 100.0681045  89.7388020  32.8129567  98.7781538  87.4378179
  33.3417334  98.2673993  86.8248341  33.0757787  98.4624069  88.3023712
  21.5372892  88.0915110  86.9771887  21.8326333  87.1825788  86.9238940
  20.6360928  88.0702849  86.6552889  33.4458971  99.8122374  93.7822295
  33.3210110  99.0112114  93.2733241  34.1038062 100.3068567  93.2936265
  25.0667139  86.1671107  92.9599435  24.3453725  86.7807074  92.8206909
  25.8560395  86.7028871  92.8816081  35.5093879  97.6131394  95.4101845
  34.5624215  97.4936745  95.3380172  35.8576652  96.7253892  95.4928107
  23.2660734  85.7729208  87.1011212  22.9373440  84.8926587  86.9186318
  23.6200104  85.7176876  87.9887601  32.5140313  97.4084110  91.6106197
  32.3665275  96.4800818  91.7913768  33.3393806  97.4304201  91.1263273
  26.3802557  86.0602177  87.4686690  26.7198629  86.5888099  86.7465298
  26.8274677  86.3982584  88.2445256  36.1174434  98.2312669  92.6971070
  37.0420982  98.0255530  92.5595521  35.9489738  97.9829070  93.6060412
  29.0745998  84.4439228  96.9189758  28.7342818  83.6447041  97.3210438
  28.3685004  84.7440939  96.3466591  29.7262470  81.5288541  95.3717081
  30.5488539  81.0549019  95.2495971  29.9700533  82.3079024  95.8715767
  28.3670704  84.5576799  85.6679982  29.0879067  84.9358052  85.1643699
  27.7436008  85.2765676  85.7714960  32.5101827  85.2621948  86.6038315
  32.7265441  86.1446586  86.3027143  32.0295894  84.8708161  85.8743957
  27.2501048  88.2207661  93.1809059  27.1045629  88.5347964  94.0733341
  26.7726252  88.8392562  92.6279958  29.1097431  85.2110209  93.2289949
  29.0959000  84.3151303  92.8922247  29.8269859  85.2180873  93.8628235
  30.9623562  85.6447549  95.2743076  30.7041340  86.5664620  95.2727407
  30.4308602  85.2477984  95.9643540  35.9069751  98.7498337  88.0533162
  36.0806628  98.1844759  87.3007014  36.3998642  99.5499231  87.8712652
  28.5134327  84.0924590  88.4977519  28.6350238  83.1641236  88.6968407
  28.2236369  84.1063275  87.5855834  31.3825518  81.7779500  91.6344239
  31.4047214  81.8418833  90.6796218  31.7993577  80.9384009  91.8284745
  41.7609142  91.5134760  89.6723461  42.2040288  90.7642085  89.2742585
  40.8835652  91.5044896  89.2897193  36.8944923  98.0665101  85.1530060
  37.5895828  98.6871794  85.3717375  37.2368073  97.2160452  85.4282438
  38.7936346  95.5164806  86.6817391  39.3187670  95.8552079  85.9566711
  38.7058699  94.5811822  86.4980525  27.4864386  95.6778722  86.5893406
  27.6352506  96.3614187  85.9360079  28.2930830  95.6583812  87.1042862
  35.8931890  88.9821105 100.6160624  36.7941753  88.8427569 100.3244622
  35.9679864  89.1475559 101.5558801  41.3042007  92.9839998  92.0645909
  42.1388898  93.4229802  92.2283469  41.4401135  92.5078651  91.2454155
  38.3533512  90.5419733  98.0123397  38.8287634  90.7347379  97.2042248
  37.4299078  90.5978918  97.7666780  25.2417019  91.7043900  87.5954475
  24.9963061  90.8006230  87.7934685  25.4112934  91.7061050  86.6533953
  32.9313729  82.5767576  96.9779231  33.4495673  83.3128603  96.6525719
  32.5768862  82.8831570  97.8125990  24.5112667  87.4372257  85.0940637
  23.8181912  87.5116612  84.4380672  24.2664419  86.6732601  85.6162153
  33.1826323  78.9967859  92.4980127  33.4628077  78.3291048  93.1240554
  33.9676930  79.1896954  91.9854791  30.9859792  98.1726853  84.0605154
  30.4133759  98.7917040  83.6075625  31.5592585  98.7226214  84.5945076
  37.0535181  87.4185493  96.2451702  38.0052604  87.5183590  96.2663926
  36.8838632  86.6263761  96.7549787  35.0749561  84.5041076  96.4311103
  34.4799493  84.7846089  95.7357592  34.7899258  84.9934977  97.2027844
  34.2057051  98.4564003  85.1913736  35.1387725  98.3909564  85.3946611
  34.1180264  99.2920270  84.7328268  36.8345068  97.7729873  82.1517683
  36.7558700  97.4389737  83.0453441  37.6554735  98.2651641  82.1509156
  39.5323259  90.6391612  95.3594002  39.4999579  89.7007613  95.5453686
  40.1423883  90.7175649  94.6259827  31.3706590  89.5087665  81.4021206
  32.3165695  89.3793874  81.4709624  30.9920835  88.7702327  81.8790634
  39.6817748  87.4302656  95.4052285  39.1656796  86.6461112  95.2182214
  40.5657696  87.1021372  95.5698805  37.3428475  81.1743671  91.3648098
  37.1453296  80.8658760  92.2491430  37.9528180  81.9005310  91.4946028
  45.3499809  91.7007619  94.5000039  46.0803198  91.4392907  95.0607742
  44.7406755  90.9636341  94.5402107  43.4315106  89.8415482  95.0974490
  42.7048270  89.7071447  94.4890982  43.0162393  90.1492310  95.9031208
  29.5549507  87.4337642  81.3376091  28.6480963  87.1370755  81.4138805
  29.8325488  87.1367460  80.4710378  31.1711573  81.9774532  87.4920333
  30.3612301  81.6321616  87.8675579  31.8595990  81.6682075  88.0807944
  33.1002121  81.0552578  89.1144629  33.6533160  81.4748032  89.7734652
  33.3372208  80.1288326  89.1567585  28.3248292  84.2924577  81.4788070
  29.1867456  84.6179475  81.7383888  28.5098636  83.5056073  80.9661136
  36.4780928  83.1653103  88.6223293  35.8979597  83.8237908  88.2401346
  36.2116861  82.3430448  88.2110711  34.9284495  82.5658161  90.8244614
  35.4284273  82.6774696  90.0158933  35.5720103  82.2619214  91.4645422
  35.2605806  85.3253194  87.6779642  34.3731661  85.6102844  87.4599836
  35.6759795  85.1646957  86.8306919  38.6120343  85.3499715  91.3933981
  39.3880733  85.8396167  91.6658598  37.8868477  85.7757769  91.8505850
  41.0492901  86.0627334  92.4507922  41.6437392  85.8223070  91.7401230
  41.1219485  85.3434465  93.0781458  34.4049020  95.0897869  81.7727662
  35.1084870  95.2947871  82.3885317  33.6811669  95.6574630  82.0376745
  35.2346830  90.8407730  87.8929932  35.1782032  91.2976281  87.0537564
  35.7875173  90.0798414  87.7152775  39.0451636  86.6297462  88.7180051
  38.7888570  86.2294097  89.5488259  38.4204504  87.3441256  88.5930191
  43.3563974  89.3693535  91.2251343  42.7963532  89.4386724  91.9982905
  42.7507477  89.1934520  90.5050839  36.3135717  95.5280398  83.8226122
  37.1481321  95.0961596  83.6403597  36.1520060  95.3562411  84.7503016
  35.9681609  92.0312511  85.1882461  35.9130413  91.8656782  84.2470905
  35.3427665  92.7388544  85.3444651  29.2777735  81.5320620  84.7667779
  29.2656405  82.4762460  84.9236050  30.1701157  81.3490765  84.4727241
  33.0929854  78.1263397  89.0213716  32.3262250  77.5721883  89.1670399
  33.5040559  78.1985265  89.8827868  41.1551295 101.1593877  84.0892176
  41.3225697 102.0274113  84.4562647  40.9648464 101.3221159  83.1653465
  46.8325582 104.0873008  85.9019177  47.7443438 104.3200395  85.7266874
  46.3235229 104.6710052  85.3394256  42.0675634 100.1026203  89.5391081
  41.2117230  99.7133053  89.3596719  42.4802586 100.1818164  88.6790866
  39.8417666  97.7211276  92.9448822  40.7070663  97.5254085  92.5854712
  39.9095175  97.4921628  93.8718179  44.2714826 103.1303594  86.3065624
  43.9664962 103.4449744  87.1575767  45.2245268 103.2085014  86.3492957
  37.4479985  99.9513484  90.3165189  38.0223737  99.7288665  89.5838382
  38.0350968 100.0202178  91.0693790  39.7502653  96.8254733  89.0440259
  39.0967066  96.5103750  88.4196873  39.7083127  96.2030473  89.7700081
  46.2154278 101.7485198  90.4809376  45.4777035 101.2362585  90.8119618
  46.4681052 101.3085580  89.6692653  46.3165906  94.5261450  91.0751145
  46.6224783  93.6658814  90.7877060  47.0418511  95.1179071  90.8750139
  37.6487953 101.8265172  81.5358981  36.7717419 101.7053973  81.1721228
  38.1245706 101.0351251  81.2837870  44.1448529  99.9886092  91.4255707
  44.6417228  99.2356055  91.1056777  43.3735510 100.0250409  90.8598916
  40.7283498 102.1303475  91.1527392  40.3581285 101.5774516  91.8408297
  41.2242590 101.5261609  90.6002392  34.1054488 101.1021125  87.1011212
  33.7767194 100.2218504  86.9186318  34.4593859 101.0468794  87.9887601
  37.2196311 101.3894095  87.4686690  37.5592384 101.9180016  86.7465298
  37.6668432 101.7274501  88.2445256  39.2064459  99.8868717  85.6679982
  39.9272821 100.2649970  85.1643699  38.5829763 100.6057594  85.7714960
  43.3495581 100.5913866  86.6038315  43.5659196 101.4738504  86.3027143
  42.8689649 100.2000079  85.8743957  39.9491186 100.5402127  93.2289949
  39.9352754  99.6443220  92.8922247  40.6663614 100.5472791  93.8628235
  39.3528082  99.4216507  88.4977519  39.4743993  98.4933153  88.6968407
  39.0630124  99.4355193  87.5855834  42.2219272  97.1071418  91.6344239
  42.2440969  97.1710751  90.6796218  42.6387331  96.2675926  91.8284745
  44.0220078  94.3259776  92.4980127  44.3021831  93.6582965  93.1240554
  44.8070685  94.5188872  91.9854791  48.1822229  96.5035589  91.3648098
  47.9847050  96.1950677  92.2491430  48.7921935  97.2297228  91.4946028
  40.3943262 102.7629559  81.3376091  39.4874717 102.4662672  81.4138805
  40.6719243 102.4659378  80.4710378  42.0105327  97.3066449  87.4920333
  41.2006056  96.9613534  87.8675579  42.6989744  96.9973993  88.0807944
  43.9395876  96.3844496  89.1144629  44.4926914  96.8039949  89.7734652
  44.1765962  95.4580244  89.1567585  39.1642046  99.6216495  81.4788070
  40.0261210  99.9471393  81.7383888  39.3492391  98.8347991  80.9661136
  47.3174683  98.4945021  88.6223293  46.7373352  99.1529825  88.2401346
  47.0510616  97.6722366  88.2110711  45.7678249  97.8950079  90.8244614
  46.2678028  98.0066613  90.0158933  46.4113857  97.5911132  91.4645422
  46.0999561 100.6545112  87.6779642  45.2125416 100.9394762  87.4599836
  46.5153550 100.4938875  86.8306919  49.8845391 101.9589379  88.7180051
  49.6282325 101.5586015  89.5488259  49.2598259 102.6733173  88.5930191
  40.1171489  96.8612538  84.7667779  40.1050159  97.8054378  84.9236050
  41.0094911  96.6782683  84.4727241  43.9323609  93.4555314  89.0213716
  43.1656005  92.9013801  89.1670399  44.3434314  93.5277183  89.8827868
   1.3096321  24.8968805  72.4168470   0.6742154  24.9703431  73.1289375
   0.9793728  25.4862404  71.7387549   3.4750565  19.7767460  72.6264484
   4.3868421  20.0094846  72.4512181   2.9660212  20.3604504  72.0639562
   5.9609379  25.6947716  77.3722429   5.2760417  26.0746617  76.8219462
   6.0453229  26.3043043  78.1054377  12.4212132  22.5618379  78.4925101
  11.6675840  21.9925777  78.3369106  12.5559673  22.5281043  79.4395736
   6.0987780  23.7003309  73.1404323   5.3217223  23.3614468  72.6959485
   6.7779261  23.7055932  72.4659288   4.3379087  23.1737290  79.7970931
   3.6802762  23.8636551  79.8851059   5.1419486  23.5633722  80.1404917
   3.1484546  21.5281663  77.8474872   3.6616428  22.1611655  78.3496582
   3.7985770  20.9282858  77.4818232   3.9146342  26.5087664  75.9754015
   3.4608669  25.6678574  76.0319205   3.2840309  27.1449063  76.3128795
   2.3579281  28.3464161  76.9103833   2.6502256  28.9069218  76.1916199
   2.8677902  28.6392722  77.6656992   6.4976277  22.7147015  75.6027244
   6.3594176  22.9048611  74.6748434   6.1412496  23.4766398  76.0595296
   6.5245657  24.7823542  80.6138516   6.9582164  24.6898832  81.4621570
   7.2377238  24.7581043  79.9758532   2.5014390  23.2974200  69.1382983
   1.8843561  22.5721028  69.0416036   2.0330879  24.0583560  68.7950058
   8.6403270  21.3820910  79.7919305   8.6293146  22.2645625  79.4213238
   7.7720649  21.0292461  79.5973842   1.8703293  24.4352231  75.7239437
   0.9359572  24.5553694  75.5544141   2.0479961  23.5324698  75.4599447
   5.2575844  20.2769551  76.2589471   5.7236297  21.1097542  76.1849774
   5.7083345  19.8114532  76.9634730   3.3252075  26.6213372  73.2575623
   3.6011919  26.5069967  74.1669497   2.4556574  26.2230857  73.2187796
   0.9277709  30.8308744  80.5067602   0.8028848  30.0298483  79.9978547
   1.5856800  31.3254937  80.0181572   3.5993172  29.2499039  79.4216377
   4.5239720  29.0441900  79.2840828   3.4308476  29.0015440  80.3305718
   3.3888488  29.7684706  74.7778468   3.5625366  29.2031129  74.0252321
   3.8817380  30.5685601  74.5957958   9.2427880  22.5321129  76.3968768
   9.6859026  21.7828454  75.9987891   8.3654390  22.5231265  76.0142500
   4.3763661  29.0851471  71.8775367   5.0714566  29.7058163  72.0962681
   4.7186811  28.2346822  72.1527744   6.2755084  26.5351176  73.4062697
   6.8006408  26.8738449  72.6812017   6.1877437  25.5998191  73.2225832
   8.7860744  24.0026367  78.7891216   9.6207636  24.4416171  78.9528776
   8.9219873  23.5265021  77.9699461   1.6875789  29.4750372  71.9159042
   2.6206462  29.4095934  72.1191918   1.5999002  30.3106639  71.4573575
   4.3163806  28.7916243  68.8762990   4.2377437  28.4576106  69.7698748
   5.1373473  29.2838011  68.8754462  12.8318547  22.7193989  81.2245345
  13.5621935  22.4579277  81.7853049  12.2225492  21.9822711  81.2647413
   2.7424544  16.3439563  74.4024948   1.8550399  16.6289214  74.1845143
   3.1578533  16.1833327  73.5552225   1.8867758  26.1084238  68.4972968
   2.5903608  26.3134241  69.1130624   1.1630406  26.6761000  68.7622052
   2.7165568  21.8594099  74.6175239   2.6600769  22.3162651  73.7782871
   3.2693910  21.0984784  74.4398081   6.5270374  17.6483831  75.4425358
   6.2707308  17.2480467  76.2733566   5.9023242  18.3627625  75.3175497
  10.8382712  20.3879904  77.9496649  10.2782270  20.4573094  78.7228211
  10.2326215  20.2120889  77.2296146   3.7954455  26.5466767  70.5471428
   4.6300059  26.1147966  70.3648903   3.6338798  26.3748781  71.4748323
   3.4500347  23.0498881  71.9127768   3.3949151  22.8843152  70.9716212
   2.8246402  23.7574914  72.0689957  12.4238730  37.0636418  80.6426605
  13.0617140  36.9443166  79.9389945  12.3059573  38.0117262  80.7014557
   9.2328436  37.0163847  80.5788130   8.8946948  36.9004911  79.6908665
  10.1018205  36.6155012  80.5589136   5.0915252  38.8699323  76.5685021
   4.5280117  38.7789260  75.8001309   4.9767647  38.0499227  77.0487513
   9.7148219  38.1698698  86.5374335   9.7036860  37.7751497  85.6654839
   9.8768859  37.4364771  87.1308107   2.6379684  40.3650515  79.4069241
   3.4300976  40.0241339  78.9915541   2.8776334  40.4745490  80.3271395
  10.6714811  42.5370291  71.8799486  10.0202791  43.1224371  71.4933499
  11.4659174  43.0676486  71.9394523   4.5970438  39.6259428  72.2786620
   5.3701314  39.0788415  72.1399496   4.9495837  40.4903677  72.4901081
   6.4355481  40.9535810  85.4853519   6.1445347  41.8581441  85.3700186
   7.0712465  40.9952338  86.1997589   7.3611687  38.3312659  82.0754879
   7.9575260  38.1068681  81.3611842   7.4186659  37.5897404  82.6780327
   6.9336716  35.7852094  69.9105070   7.1862236  35.2633615  69.1488533
   5.9961275  35.6218239  70.0131754  11.9779999  34.7887872  77.7179813
  12.7643088  34.3707295  77.3670230  12.2418703  35.6933964  77.8861462
  12.1490076  40.2260723  72.4168470  11.5135909  40.2995349  73.1289375
  11.8187482  40.8154321  71.7387549  17.3788426  34.7263105  78.6212792
  18.1113598  34.1562322  78.8550621  16.6227781  34.3384706  79.0619297
   6.6533005  37.6880200  72.1129445   6.5369263  37.0125103  72.7810529
   6.7635264  37.2012574  71.2961598   8.9964545  37.1490347  75.8176134
   8.6322753  36.6220968  76.5289056   9.8531661  36.7588816  75.6442620
  14.9013846  28.4384680  83.0807400  14.5697171  29.3080091  82.8568615
  14.3059459  28.1220964  83.7601431   8.6370032  32.1780247  70.8137483
   8.8044435  33.0460483  71.1807954   8.4467202  32.3407528  69.8898772
  11.3945366  40.6397226  82.4803313  11.0946089  41.5422264  82.3719120
  11.0496425  40.3729409  83.3324466   4.8457847  37.0911022  78.5140017
   3.9208344  36.9587237  78.7217709   5.0942260  37.8705242  79.0109960
  14.7942509  33.1579766  80.1600750  13.8859387  33.0895174  79.8659511
  14.7430105  33.6351711  80.9882576   8.6159253  34.6337904  71.7984150
   8.4958879  35.0794955  72.6369630   7.9211842  34.9823222  71.2397688
   2.2066658  36.7344296  79.3483807   2.3359039  36.9878775  80.2623218
   1.5264109  37.3272004  79.0288462   6.3766145  47.4041546  75.4474281
   6.2990175  48.3549371  75.5262761   5.7727789  47.0587418  76.1049207
   8.8683375  34.5769411  88.1035648   8.0916709  35.1363331  88.0938512
   9.5073938  35.0626194  88.6250518  16.6604156  31.3596204  81.9378624
  16.0178536  31.6528737  81.2918419  16.1559084  31.2449124  82.7431821
  14.3144319  35.1059377  72.6264484  15.2262176  35.3386764  72.4512181
  13.8053967  35.6896422  72.0639562   7.1229748  37.3854865  87.6653615
   7.8644432  37.9239909  87.3888438   6.4166733  38.0121153  87.8225166
  12.5985087  39.5284005  86.2625776  13.0068443  39.0866416  85.5180408
  11.8762349  38.9536633  86.5159969   8.9516157  34.4656612  83.6359333
   9.7977352  34.8896025  83.7793982   8.8914795  33.8090236  84.3297896
  12.9213902  40.0885196  80.0178065  12.2922764  40.2530910  79.3154133
  12.5339564  40.5026805  80.7889029  16.8003134  41.0239634  77.3722429
  16.1154172  41.4038535  76.8219462  16.8846983  41.6334960  78.1054377
  12.1015603  32.1260980  85.2940507  11.8576534  32.8803041  84.7574782
  12.3775533  32.5046328  86.1287754  14.0554065  38.6699593  83.9717772
  14.2670961  39.3131353  83.2952153  14.0083814  37.8361909  83.5039702
  11.6580294  31.2817413  80.8754344  10.7964773  31.5798667  81.1671082
  11.6842729  31.4987812  79.9435377   8.4741864  39.8259604  77.2828150
   8.9380209  40.1047307  76.4932773   8.2098662  38.9243048  77.1001241
   5.3665945  39.3731085  80.2207913   5.9367302  39.8018354  79.5825398
   5.9574057  39.0913670  80.9192099   7.4110750  35.9482756  74.0917715
   8.1134793  36.4003800  74.5591642   7.0791378  35.3066575  74.7197608
  15.1699893  41.5471548  82.1440130  15.9917337  41.1451735  81.8622811
  15.1662296  41.4439782  83.0956245   3.1050829  34.5710888  76.3518326
   2.3081992  34.6829582  76.8701821   2.8776421  34.9097540  75.4859216
   8.9356497  41.0955591  84.3000840   9.0000929  41.5575999  85.1359012
   8.2267421  40.4652956  84.4283150  23.2605886  37.8910297  78.4925101
  22.5069595  37.3217695  78.3369106  23.3953428  37.8572961  79.4395736
   8.6504514  42.7623699  74.1679820   8.5150189  43.6075235  74.5964668
   9.1914327  42.9642977  73.4045754   2.1033912  40.2799137  74.7407746
   2.6158432  41.0742387  74.8913310   2.7556625  39.5825427  74.6741347
   3.9128796  43.3964893  76.8230499   4.0895425  44.3182858  76.6351483
   4.7085630  43.0823312  77.2524879  10.2772991  43.3847265  88.2980163
   9.8336845  42.5983644  87.9801067  10.9390204  43.5726416  87.6324053
   5.0360112  44.9143067  82.8240841   5.5867537  44.7860130  82.0517835
   4.1971588  45.2137956  82.4735734  12.3754229  43.6650065  86.3261564
  12.3572704  44.4858946  85.8341833  13.2974149  43.5404141  86.5511705
   8.8327283  41.1794195  87.1685072   9.3655620  40.4182483  86.9384380
   8.3041364  40.8867847  87.9109227  11.9996978  26.2854261  82.6978714
  11.6561247  27.1755902  82.6217825  12.3675941  26.0955918  81.8348299
  11.9647261  36.2762872  71.2051149  11.4493884  37.0467476  71.4439536
  11.6924569  35.6028008  71.8284210   9.5494372  31.1212573  76.2636387
   8.6935968  30.7319423  76.0842026   9.9621323  31.2004533  75.4036173
  11.0793518  28.6558916  80.6627947  10.5758314  28.6189051  79.8495752
  11.3724125  29.5651659  80.7224604   7.3236404  28.7397646  79.6694129
   8.1889401  28.5440454  79.3100018   7.3913913  28.5107997  80.5963486
  16.9381535  39.0295226  73.1404323  16.1610978  38.6906386  72.6959485
  17.6173016  39.0347850  72.4659288  11.7533564  34.1489964  73.0310930
  11.4483699  34.4636113  73.8821073  12.7064006  34.2271384  73.0738263
  10.1979996  40.3080187  74.6803884   9.6701357  39.5732947  74.3677122
   9.6967498  41.0854864  74.4343853  15.1772842  38.5029208  79.7970931
  14.5196516  39.1928469  79.8851059  15.9813241  38.8925640  80.1404917
   4.9298723  30.9699854  77.0410496   5.5042475  30.7475035  76.3083689
   5.5169706  31.0388548  77.7939097  13.9878300  36.8573580  77.8474872
  14.5010182  37.4903572  78.3496582  14.6379524  36.2574776  77.4818232
   5.2568310  33.0004315  71.0606381   4.4205623  33.3379001  71.3815656
   5.1173080  32.8653294  70.1233518   7.2321391  27.8441102  75.7685565
   6.5785803  27.5290120  75.1442180   7.1901865  27.2216843  76.4945388
   8.3432596  38.1260398  67.6838857   7.4359658  37.8949651  67.8830006
   8.8403628  37.3298017  67.8712839  11.2500675  46.8357905  70.6035543
  10.5762373  47.1389601  71.2120501  11.6366497  47.6386985  70.2541000
  10.4659131  34.3323036  80.0933213   9.5481693  34.5537983  79.9354901
  10.8819275  34.4069346  79.2344920  11.2494179  35.7314452  75.2235893
  11.9965998  36.2435849  74.9143015  11.5185769  35.4098504  76.0840287
   9.5220829  38.2272992  72.2062847   8.6132049  37.9432025  72.3035317
   9.5515913  38.6472071  71.3466154  14.7540097  41.8379582  75.9754015
  14.3002424  40.9970492  76.0319205  14.1234063  42.4740980  76.3128795
  13.6973016  32.7671568  77.2054682  12.9595773  32.2548954  77.5364925
  13.9499790  32.3271950  76.3937959  13.1973036  43.6756079  76.9103833
  13.4896010  44.2361136  76.1916199  13.7071657  43.9684640  77.6656992
  13.7984644  25.5447820  77.7996452  14.1043520  24.6845183  77.5122367
  14.5237248  26.1365440  77.5995446   8.0705723  35.8401613  78.3072643
   8.1254333  34.8875449  78.2315119   7.2596925  35.9961052  78.7913941
   9.2196917  39.7681736  69.5450926   8.7816347  39.0517595  69.0856563
   9.9607358  39.9957851  68.9836017   6.0098083  34.4578673  76.0663022
   5.1965949  34.7572843  76.4728214   6.5057077  34.0634362  76.7837504
   8.1606661  44.4536430  77.9997286   8.1182840  44.6797276  77.0705818
   9.0769360  44.2199804  78.1483087  11.6072295  34.9220497  84.8977915
  11.9621683  35.1491970  85.7572381  12.2544426  35.2538874  84.2755171
  17.3370032  38.0438933  75.6027244  17.1987930  38.2340529  74.6748434
  16.9806251  38.8058316  76.0595296   5.5012158  32.0297028  81.6824257
   6.1411537  31.8885787  80.9847220   4.6689689  31.7431542  81.3062858
  17.3639411  40.1115460  80.6138516  17.7975918  40.0190749  81.4621570
  18.0770992  40.0872961  79.9758532   6.2772462  41.3299459  77.7959249
   7.0713060  40.8349779  77.5941824   5.5664154  40.8017322  77.4326955
  11.0967306  43.7117554  82.1471617  11.1504329  44.2808491  82.9149332
  10.2282088  43.8819439  81.7825654   2.5855225  35.4742540  73.8719002
   1.6552813  35.4126996  74.0888964   2.6812697  34.9518493  73.0755643
   2.5040774  31.9997353  76.4597243   2.7647592  32.9142686  76.3506404
   3.3257947  31.5321796  76.6093856   3.9765700  33.4135110  83.6296068
   4.6488753  33.2052473  82.9808717   3.1495486  33.2157196  83.1901300
  18.2254961  40.1539161  83.1471401  18.4190851  41.0584971  83.3930676
  18.1255579  39.6946580  83.9809986   9.8791272  30.0397051  85.6461729
   9.2319187  30.7387001  85.5526205  10.6492287  30.4733195  86.0137977
  13.2870070  40.3045904  88.7212282  13.1355576  40.0756455  87.8042366
  13.2774749  41.2616505  88.7343627  10.0555406  37.8777816  83.7058548
  10.9847466  38.0288976  83.5327516   9.6346436  37.9661837  82.8507195
   8.8543738  41.9028481  81.4757086   8.7154824  41.5347265  82.3483024
   8.0658334  42.4176120  81.3041044   9.4491890  47.0037577  72.8182623
   9.6243646  46.5325620  73.6328245   8.7624678  47.6303343  73.0463883
  10.4048953  41.2810083  78.8645924  10.0698786  41.2410853  79.7603574
   9.9052899  40.6154799  78.3916334   4.3793197  36.6877713  84.3898505
   4.2412995  35.9557952  84.9910044   5.2898120  36.5986613  84.1082693
  13.3408145  38.6266118  69.1382983  12.7237315  37.9012946  69.0416036
  12.8724633  39.3875478  68.7950058   7.0075498  36.3997673  83.8782185
   7.7175116  35.7590865  83.8368803   6.9644806  36.6510568  84.8008365
  14.9962276  43.3365026  86.7988764  14.9374823  42.6524246  86.1319347
  15.3981795  44.0784016  86.3469390   4.0152975  50.1526940  79.5922483
   4.2549573  50.7845464  80.2701501   3.1722172  49.8014980  79.8787842
   5.1306691  32.8451542  68.2604288   4.2536157  32.7240343  67.8966534
   5.6064444  32.0537620  68.0083176  14.9979684  41.3004610  85.0302744
  14.1106462  40.9630532  85.1529142  15.5678235  40.5687641  85.2671509
   1.4543553  32.5218898  82.7830819   1.3701742  31.9144568  82.0481229
   0.6326259  33.0127917  82.7840315   8.5280837  45.9606062  81.9963987
   8.4551008  46.7661034  82.5083291   8.0858230  46.1598028  81.1712008
   8.3170617  45.1977832  75.5066808   7.5338139  45.7399513  75.6005033
   9.0163362  45.7151812  75.9061049  11.6267267  31.0072462  78.1501014
  12.1235966  30.2542424  77.8302084  10.8554248  31.0436778  77.5844223
  19.4797024  36.7112827  79.7919305  19.4686900  37.5937543  79.4213238
  18.6114404  36.3584378  79.5973842  10.9879521  45.8592896  84.1522145
  11.7007493  46.4940361  84.0798047  10.4969549  45.9556762  83.3362147
  12.7097047  39.7644149  75.7239437  11.7753326  39.8845612  75.5544141
  12.8873716  38.8616616  75.4599447   8.2102236  33.1489845  77.8772698
   7.8400023  32.5960885  78.5653604   8.7061328  32.5447978  77.3247698
  16.0969599  35.6061468  76.2589471  16.5630051  36.4389460  76.1849774
  16.5477099  35.1406450  76.9634730   6.0391434  43.6087340  84.9727716
   6.7400894  44.2423823  85.1257110   5.5686549  43.9502071  84.2123355
  14.1645830  41.9505290  73.2575623  14.4405674  41.8361884  74.1669497
  13.2950329  41.5522774  73.2187796  14.0686262  27.9742055  80.2980373
  13.1549341  28.2046282  80.4662579  14.4979363  28.0580499  81.1494405
  13.8392720  36.1631947  82.7980267  13.1864170  36.4107855  82.1432719
  14.2173100  35.3496085  82.4642744  10.7999894  46.1991640  76.9008437
  10.9822288  45.3813296  77.3636189  11.6232880  46.4159333  76.4633327
  11.1342059  45.1259826  74.1623485  11.6629826  44.6152280  73.5493647
  11.3970279  44.8102356  75.0269018   1.6359152  43.1423695  81.9058819
   2.2212589  42.3967383  82.0386723   1.4383991  43.4527652  82.7895483
   4.4897807  46.1774942  76.9221261   3.8208183  46.6621070  76.4385301
   4.3510677  46.4244163  77.8364640   8.6303076  48.2118686  83.5203920
   9.1821384  48.3750307  84.2853005   8.9709269  48.8023124  82.8483944
  13.4813950  43.0379943  89.3752574  14.0253854  43.6509902  88.8807529
  12.9000795  43.5959522  89.8919587  11.7671463  46.1600661  80.5067602
  11.6422603  45.3590401  79.9978547  12.4250554  46.6546855  80.0181572
   3.3879631  32.5149394  79.6844742   2.6666217  33.1285362  79.5452215
   4.1772887  33.0507159  79.6061388  13.8306372  43.9609681  82.1347152
  12.8836707  43.8415033  82.0625479  14.1789145  43.0732179  82.2173413
   1.5873226  32.1207495  73.8256519   1.2585932  31.2404874  73.6431625
   1.9412597  32.0655164  74.7132908  10.8352805  43.7562398  78.3351504
  10.6877767  42.8279105  78.5159074  11.6606298  43.7782488  77.8508579
   4.7015049  32.4080465  74.1931996   5.0411122  32.9366386  73.4710605
   5.1487170  32.7460871  74.9690563  14.4386927  44.5790956  79.4216377
  15.3633474  44.3733818  79.2840828  14.2702230  44.3307358  80.3305718
   7.3958490  30.7917515  83.6435064   7.0555310  29.9925328  84.0455744
   6.6897496  31.0919226  83.0711898   8.0474962  27.8766828  82.0962387
   8.8701031  27.4027306  81.9741278   8.2913025  28.6557312  82.5961074
   6.6883196  30.9055086  72.3925289   7.4091559  31.2836339  71.8889006
   6.0648500  31.6243963  72.4960267  10.8314319  31.6100235  73.3283621
  11.0477934  32.4924873  73.0272450  10.3508386  31.2186449  72.5989263
   5.5713541  34.5685948  79.9054366   5.4258121  34.8826252  80.7978647
   5.0938744  35.1870849  79.3525265   7.4309923  31.5588496  79.9535256
   7.4171492  30.6629590  79.6167553   8.1482352  31.5659160  80.5873542
   9.2836054  31.9925837  81.9988383   9.0253832  32.9142907  81.9972713
   8.7521095  31.5956271  82.6888847  14.2282243  45.0976624  74.7778468
  14.4019120  44.5323046  74.0252321  14.7211134  45.8977519  74.5957958
   6.8346819  30.4402877  75.2222826   6.9562731  29.5119523  75.4213713
   6.5448862  30.4541563  74.3101141   9.7038010  28.1257787  78.3589545
   9.7259707  28.1897120  77.4041525  10.1206069  27.2862296  78.5530052
  20.0821634  37.8613047  76.3968768  20.5252780  37.1120372  75.9987891
  19.2048144  37.8523183  76.0142500  15.2157415  44.4143388  71.8775367
  15.9108320  45.0350081  72.0962681  15.5580566  43.5638739  72.1527744
  17.1148839  41.8643094  73.4062697  17.6400163  42.2030366  72.6812017
  17.0271191  40.9290109  73.2225832   8.7768887  45.7777167  85.5352574
   9.0856014  45.5326314  86.4075274   9.5744369  45.9823806  85.0471444
   8.7989499  47.9315077  77.7657951   8.3594490  47.4391456  78.4590807
   9.5497616  47.3888045  77.5250026   1.2781838  44.1226618  77.7682579
   2.1039858  43.8230390  77.3881222   0.9275890  43.3534240  78.2172367
   6.2463371  43.4753086  79.8380252   5.6243381  42.8123791  79.5382480
   6.9168238  43.5014218  79.1553900  16.8042745  42.4975997  88.7113895
  16.0138288  42.4800136  88.1718395  16.5676099  43.0364291  89.4662932
  16.9240620  39.3468464  86.0246624  16.9738625  39.1818471  86.9662147
  16.8154543  38.4795723  85.6344505   5.8076878  42.0257009  73.3138713
   5.9564999  42.7092474  72.6605386   6.6143322  42.0062100  73.8288168
  14.2144382  35.3299392  87.3405931  15.1154245  35.1905857  87.0489928
  14.2892357  35.4953847  88.2804108   8.5487187  32.7066247  86.1859117
   7.6790497  32.9999813  85.9141705   8.7846668  33.2906692  86.9066381
  18.4258817  41.7665405  86.2688645  18.1343625  42.1295386  87.1052106
  17.8130948  41.0532414  86.0901977  19.6254499  39.3318285  78.7891216
  20.4601390  39.7708089  78.9528776  19.7613628  38.8556938  77.9699461
  16.6746005  36.8898020  84.7368703  17.1500126  37.0825666  83.9287555
  15.7511570  36.9457206  84.4912087   3.5629511  38.0522187  74.3199782
   3.3175553  37.1484517  74.5179992   3.7325426  38.0539338  73.3779260
  11.2526221  28.9245863  83.7024537  11.7708165  29.6606890  83.3771026
  10.8981354  29.2309857  84.5371296   2.8325159  33.7850545  71.8185943
   2.1394404  33.8594900  71.1625979   2.5876911  33.0210888  72.3407460
  11.5038815  25.3446146  79.2225434  11.7840569  24.6769335  79.8485860
  12.2889422  25.5375242  78.7100098   9.3072284  44.5205140  70.7850460
   8.7346251  45.1395327  70.3320932   9.8805078  45.0704502  71.3190382
  15.3747674  33.7663780  82.9697009  16.3265097  33.8661878  82.9909233
  15.2051124  32.9742049  83.4795093  13.3962053  30.8519363  83.1556410
  12.8011985  31.1324376  82.4602899  13.1111750  31.3413264  83.9273151
  12.5269544  44.8042290  71.9159042  13.4600217  44.7387852  72.1191918
  12.4392757  45.6398557  71.4573575  15.1557560  44.1208160  68.8762990
  15.0771192  43.7868024  69.7698748  15.9767227  44.6129928  68.8754462
  17.8535752  36.9869900  82.0839309  17.8212072  36.0485900  82.2698992
  18.4636375  37.0653936  81.3505134   9.6919082  35.8565953  68.1266513
  10.6378187  35.7272161  68.1954931   9.3133327  35.1180615  68.6035941
  18.0030240  33.7780943  82.1297592  17.4869289  32.9939400  81.9427521
  18.8870189  33.4499660  82.2944111  15.6640967  27.5221959  78.0893404
  15.4665788  27.2137047  78.9736736  16.2740673  28.2483598  78.2191334
  23.6712301  38.0485907  81.2245345  24.4015690  37.7871195  81.7853049
  23.0619247  37.3114628  81.2647413  21.7527599  36.1893769  81.8219797
  21.0260762  36.0549734  81.2136288  21.3374885  36.4970598  82.6276515
   9.5757775  39.9083699  89.5867170  10.4960784  40.0862298  89.7807216
   9.5407358  38.9639744  89.4346869   7.8762000  33.7815929  68.0621398
   6.9693455  33.4849042  68.1384112   8.1537981  33.4845747  67.1955684
   2.5719847  37.8184733  82.2289951   2.7905857  38.7501841  82.2477985
   2.9845621  37.4592708  83.0144755   9.4924065  28.3252819  74.2165639
   8.6824794  27.9799904  74.5920885  10.1808482  28.0160362  74.8053251
  11.4214614  27.4030866  75.8389936  11.9745652  27.8226319  76.4979959
  11.6584700  26.4766614  75.8812892   6.6460784  30.6402864  68.2033377
   7.5079948  30.9657763  68.4629194   6.8311128  29.8534360  67.6906443
  14.7993421  29.5131391  75.3468600  14.2192090  30.1716195  74.9646653
  14.5329353  28.6908735  74.9356018  13.2496987  28.9136448  77.5489920
  13.7496765  29.0252983  76.7404239  13.8932595  28.6097501  78.1890729
   3.2352320  40.7119613  82.4726195   4.1895574  40.6803555  82.4056127
   3.0364844  40.2510236  83.2876421   3.8251702  39.2820729  85.0396993
   4.6444591  39.7764807  85.0631830   4.0988510  38.3652697  85.0114560
  13.5818299  31.6731481  74.4024948  12.6944154  31.9581132  74.1845143
  13.9972288  31.5125244  73.5552225  16.9332835  31.6978002  78.1179288
  17.7093225  32.1874455  78.3903904  16.2080969  32.1236056  78.5751157
  19.3705393  32.4105621  79.1753228  19.9649884  32.1701357  78.4646536
  19.4431977  31.6912752  79.8026765   1.5902549  46.2539232  79.4896393
   1.4557017  45.4939633  78.9234391   1.1734611  46.9780132  79.0225182
  12.7261512  41.4376156  68.4972968  13.4297362  41.6426158  69.1130624
  12.0024161  42.0052918  68.7622052  13.5559322  37.1886017  74.6175239
  13.4994524  37.6454568  73.7782871  14.1087665  36.4276702  74.4398081
  17.3664128  32.9775749  75.4425358  17.1101063  32.5772385  76.2733566
  16.7416996  33.6919543  75.3175497  21.6776466  35.7171822  77.9496649
  21.1176024  35.7865011  78.7228211  21.0719970  35.5412807  77.2296146
   4.7471675  47.1508549  79.7014836   4.6304059  48.0953982  79.5993526
   3.9264121  46.8482111  80.0900635  14.6348210  41.8758685  70.5471428
  15.4693813  41.4439883  70.3648903  14.4732552  41.7040699  71.4748323
  14.2894102  38.3790798  71.9127768  14.2342906  38.2135070  70.9716212
  13.6640157  39.0866831  72.0689957  11.6040009  40.6839710  91.2381330
  12.4731169  40.8580362  90.8767965  11.1246760  41.5034127  91.1157060
   7.5990227  27.8798907  71.4913086   7.5868897  28.8240747  71.6481357
   8.4913649  27.6969053  71.1972547   5.7726189  47.8036811  82.9170764
   6.6753436  47.8360421  83.2337259   5.5463559  46.8737262  82.9317100
   7.5279791  46.5567798  79.5780843   6.5775422  46.5569659  79.4645215
   7.8312277  45.8100532  79.0616877  11.4142347  24.4741684  75.7459023
  10.6474742  23.9200171  75.8915705  11.8253052  24.5463553  76.6073175
  23.2632485  52.3928336  80.6426605  23.9010895  52.2735083  79.9389945
  23.1453328  53.3409180  80.7014557  20.0722191  52.3455764  80.5788130
  19.7340702  52.2296829  79.6908665  20.9411959  51.9446929  80.5589136
  15.9309007  54.1991241  76.5685021  15.3673872  54.1081178  75.8001309
  15.8161402  53.3791145  77.0487513  20.5541974  53.4990616  86.5374335
  20.5430615  53.1043414  85.6654839  20.7162613  52.7656689  87.1308107
  13.4773439  55.6942432  79.4069241  14.2694730  55.3533257  78.9915541
  13.7170089  55.8037407  80.3271395  21.5108565  57.8662208  71.8799486
  20.8596545  58.4516289  71.4933499  22.3052928  58.3968403  71.9394523
  15.4364192  54.9551345  72.2786620  16.2095068  54.4080333  72.1399496
  15.7889591  55.8195595  72.4901081  17.2749235  56.2827728  85.4853519
  16.9839101  57.1873359  85.3700186  17.9106219  56.3244255  86.1997589
  18.2005442  53.6604576  82.0754879  18.7969014  53.4360599  81.3611842
  18.2580413  52.9189322  82.6780327  17.7730470  51.1144012  69.9105070
  18.0255991  50.5925533  69.1488533  16.8355029  50.9510157  70.0131754
  22.8173753  50.1179790  77.7179813  23.6036842  49.6999213  77.3670230
  23.0812457  51.0225882  77.8861462  22.9883830  55.5552640  72.4168470
  22.3529663  55.6287267  73.1289375  22.6581237  56.1446239  71.7387549
  28.2182180  50.0555023  78.6212792  28.9507352  49.4854240  78.8550621
  27.4621536  49.6676624  79.0619297  17.4926759  53.0172118  72.1129445
  17.3763017  52.3417021  72.7810529  17.6029019  52.5304491  71.2961598
  19.8358300  52.4782265  75.8176134  19.4716507  51.9512886  76.5289056
  20.6925416  52.0880734  75.6442620  25.7407601  43.7676597  83.0807400
  25.4090925  44.6372008  82.8568615  25.1453214  43.4512881  83.7601431
  19.4763787  47.5072164  70.8137483  19.6438189  48.3752401  71.1807954
  19.2860956  47.6699446  69.8898772  22.2339120  55.9689143  82.4803313
  21.9339843  56.8714182  82.3719120  21.8890180  55.7021326  83.3324466
  15.6851602  52.4202940  78.5140017  14.7602098  52.2879154  78.7217709
  15.9336015  53.1997159  79.0109960  25.6336264  48.4871683  80.1600750
  24.7253141  48.4187092  79.8659511  25.5823860  48.9643628  80.9882576
  19.4553008  49.9629822  71.7984150  19.3352633  50.4086873  72.6369630
  18.7605596  50.3115140  71.2397688  13.0460413  52.0636214  79.3483807
  13.1752794  52.3170693  80.2623218  12.3657864  52.6563922  79.0288462
  17.2159900  62.7333464  75.4474281  17.1383930  63.6841289  75.5262761
  16.6121544  62.3879336  76.1049207  19.7077130  49.9061329  88.1035648
  18.9310464  50.4655249  88.0938512  20.3467693  50.3918112  88.6250518
  27.4997910  46.6888122  81.9378624  26.8572291  46.9820655  81.2918419
  26.9952839  46.5741042  82.7431821  25.1538074  50.4351295  72.6264484
  26.0655930  50.6678682  72.4512181  24.6447721  51.0188339  72.0639562
  17.9623502  52.7146782  87.6653615  18.7038186  53.2531826  87.3888438
  17.2560487  53.3413071  87.8225166  23.4378842  54.8575923  86.2625776
  23.8462198  54.4158333  85.5180408  22.7156103  54.2828550  86.5159969
  19.7909912  49.7948530  83.6359333  20.6371107  50.2187943  83.7793982
  19.7308549  49.1382154  84.3297896  23.7607656  55.4177113  80.0178065
  23.1316519  55.5822828  79.3154133  23.3733318  55.8318723  80.7889029
  27.6396888  56.3531551  77.3722429  26.9547926  56.7330453  76.8219462
  27.7240737  56.9626878  78.1054377  22.9409357  47.4552898  85.2940507
  22.6970289  48.2094958  84.7574782  23.2169288  47.8338246  86.1287754
  24.8947820  53.9991510  83.9717772  25.1064715  54.6423270  83.2952153
  24.8477568  53.1653827  83.5039702  22.4974049  46.6109331  80.8754344
  21.6358528  46.9090585  81.1671082  22.5236483  46.8279730  79.9435377
  19.3135618  55.1551522  77.2828150  19.7773964  55.4339225  76.4932773
  19.0492416  54.2534966  77.1001241  16.2059699  54.7023003  80.2207913
  16.7761056  55.1310271  79.5825398  16.7967811  54.4205588  80.9192099
  18.2504504  51.2774674  74.0917715  18.9528548  51.7295718  74.5591642
  17.9185133  50.6358493  74.7197608  16.6984866  49.8686431  88.4668925
  16.0683526  50.5502711  88.7004321  16.5920954  49.7569512  87.5222063
  11.9929838  49.5358227  79.3934849  11.2028892  49.7915755  78.9174959
  12.4841086  50.3506564  79.4986889  26.0093648  56.8763466  82.1440130
  26.8311091  56.4743653  81.8622811  26.0056051  56.7731700  83.0956245
  13.9444584  49.9002806  76.3518326  13.1475747  50.0121500  76.8701821
  13.7170176  50.2389458  75.4859216  19.7750251  56.4247509  84.3000840
  19.8394684  56.8867916  85.1359012  19.0661175  55.7944874  84.4283150
  10.2767541  49.7888717  81.8249840  10.5275580  50.6735727  82.0907416
  10.8127090  49.6093319  81.0524931  34.0999641  53.2202214  78.4925101
  33.3463349  52.6509612  78.3369106  34.2347182  53.1864879  79.4395736
  19.4898269  58.0915617  74.1679820  19.3543944  58.9367152  74.5964668
  20.0308081  58.2934894  73.4045754  15.9765608  44.1707196  90.8294176
  15.5832554  43.6173395  91.5041820  16.7931749  44.4817775  91.2200693
  12.9427666  55.6091055  74.7407746  13.4552187  56.4034305  74.8913310
  13.5950379  54.9117345  74.6741347  14.7522551  58.7256811  76.8230499
  14.9289179  59.6474776  76.6351483  15.5479384  58.4115230  77.2524879
  18.8933569  45.5865075  88.4214432  19.6343283  46.1872229  88.3418895
  19.1251492  44.8442713  87.8632475  14.0374907  50.7721443  86.6992662
  13.9228423  49.8706700  86.9999761  13.1819425  51.0185139  86.3477478
  21.1166745  58.7139183  88.2980163  20.6730599  57.9275562  87.9801067
  21.7783959  58.9018334  87.6324053  15.8753866  60.2434985  82.8240841
  16.4261292  60.1152048  82.0517835  15.0365342  60.5429874  82.4735734
  23.2147983  58.9941983  86.3261564  23.1966459  59.8150864  85.8341833
  24.1367903  58.8696058  86.5511705  19.6721037  56.5086112  87.1685072
  20.2049374  55.7474401  86.9384380  19.1435119  56.2159764  87.9109227
  22.8390732  41.6146178  82.6978714  22.4955002  42.5047820  82.6217825
  23.2069695  41.4247836  81.8348299  10.9076583  53.9379709  75.5167316
  11.7451805  54.3476717  75.3001024  11.0854851  52.9979151  75.4867510
  22.8041015  51.6054790  71.2051149  22.2887639  52.3759394  71.4439536
  22.5318324  50.9319926  71.8284210  20.3888126  46.4504490  76.2636387
  19.5329722  46.0611341  76.0842026  20.8015078  46.5296451  75.4036173
  21.9187273  43.9850834  80.6627947  21.4152068  43.9480969  79.8495752
  22.2117880  44.8943576  80.7224604  18.1630159  44.0689563  79.6694129
  19.0283155  43.8732372  79.3100018  18.2307668  43.8399915  80.5963486
  27.7775289  54.3587144  73.1404323  27.0004732  54.0198304  72.6959485
  28.4566770  54.3639767  72.4659288  22.5927318  49.4781882  73.0310930
  22.2877454  49.7928031  73.8821073  23.5457760  49.5563302  73.0738263
  21.0373750  55.6372105  74.6803884  20.5095112  54.9024865  74.3677122
  20.5361253  56.4146781  74.4343853  26.0166596  53.8321125  79.7970931
  25.3590271  54.5220387  79.8851059  26.8206995  54.2217557  80.1404917
  15.7692478  46.2991771  77.0410496  16.3436230  46.0766953  76.3083689
  16.3563460  46.3680466  77.7939097  24.8272055  52.1865498  77.8474872
  25.3403937  52.8195490  78.3496582  25.4773279  51.5866694  77.4818232
  16.0962065  48.3296232  71.0606381  15.2599377  48.6670919  71.3815656
  15.9566835  48.1945212  70.1233518  18.0715145  43.1733020  75.7685565
  17.4179558  42.8582037  75.1442180  18.0295620  42.5508761  76.4945388
  19.1826350  53.4552315  67.6838857  18.2753412  53.2241569  67.8830006
  19.6797382  52.6589934  67.8712839  22.0894429  62.1649822  70.6035543
  21.4156128  62.4681519  71.2120501  22.4760251  62.9678903  70.2541000
  21.3052886  49.6614954  80.0933213  20.3875447  49.8829901  79.9354901
  21.7213029  49.7361264  79.2344920  22.0887934  51.0606369  75.2235893
  22.8359753  51.5727767  74.9143015  22.3579523  50.7390422  76.0840287
  20.3614584  53.5564910  72.2062847  19.4525803  53.2723943  72.3035317
  20.3909668  53.9763989  71.3466154  25.5933851  57.1671500  75.9754015
  25.1396178  56.3262409  76.0319205  24.9627818  57.8032898  76.3128795
  24.5366771  48.0963486  77.2054682  23.7989528  47.5840872  77.5364925
  24.7893544  47.6563867  76.3937959  24.0366790  59.0047996  76.9103833
  24.3289765  59.5653053  76.1916199  24.5465411  59.2976557  77.6656992
  24.6378398  40.8739738  77.7996452  24.9437275  40.0137101  77.5122367
  25.3631003  41.4657358  77.5995446  10.9302754  51.2770424  76.1878050
  10.7327154  50.6839785  75.4629116  10.3749418  50.9722634  76.9053988
  18.9099478  51.1693531  78.3072643  18.9648088  50.2167367  78.2315119
  18.0990680  51.3252970  78.7913941  20.0590672  55.0973654  69.5450926
  19.6210101  54.3809513  69.0856563  20.8001112  55.3249769  68.9836017
  16.8491838  49.7870590  76.0663022  16.0359703  50.0864761  76.4728214
  17.3450832  49.3926279  76.7837504  19.0000416  59.7828347  77.9997286
  18.9576594  60.0089194  77.0705818  19.9163114  59.5491722  78.1483087
  22.4466049  50.2512415  84.8977915  22.8015437  50.4783888  85.7572381
  23.0938181  50.5830792  84.2755171  28.1763786  53.3730851  75.6027244
  28.0381685  53.5632447  74.6748434  27.8200005  54.1350234  76.0595296
  16.3405912  47.3588946  81.6824257  16.9805292  47.2177705  80.9847220
  15.5083443  47.0723459  81.3062858  28.2033166  55.4407378  80.6138516
  28.6369673  55.3482667  81.4621570  28.9164747  55.4164878  79.9758532
  17.1166216  56.6591376  77.7959249  17.9106815  56.1641696  77.5941824
  16.4057909  56.1309239  77.4326955  21.9361061  59.0409472  82.1471617
  21.9898083  59.6100408  82.9149332  21.0675842  59.2111357  81.7825654
  13.4248980  50.8034458  73.8719002  12.4946568  50.7418914  74.0888964
  13.5206452  50.2810411  73.0755643  13.3434529  47.3289271  76.4597243
  13.6041346  48.2434604  76.3506404  14.1651701  46.8613713  76.6093856
  14.8159454  48.7427028  83.6296068  15.4882508  48.5344390  82.9808717
  13.9889241  48.5449114  83.1901300  29.0648716  55.4831078  83.1471401
  29.2584606  56.3876889  83.3930676  28.9649334  55.0238498  83.9809986
  20.7185026  45.3688969  85.6461729  20.0712941  46.0678919  85.5526205
  21.4886042  45.8025113  86.0137977  24.1263824  55.6337821  88.7212282
  23.9749331  55.4048373  87.8042366  24.1168504  56.5908423  88.7343627
  20.8949161  53.2069734  83.7058548  21.8241221  53.3580894  83.5327516
  20.4740191  53.2953755  82.8507195  19.6937492  57.2320398  81.4757086
  19.5548578  56.8639183  82.3483024  18.9052089  57.7468038  81.3041044
  20.2885644  62.3329495  72.8182623  20.4637400  61.8617538  73.6328245
  19.6018432  62.9595261  73.0463883  21.2442708  56.6102001  78.8645924
  20.9092540  56.5702771  79.7603574  20.7446653  55.9446717  78.3916334
  15.2186951  52.0169631  84.3898505  15.0806749  51.2849870  84.9910044
  16.1291875  51.9278531  84.1082693  24.1801899  53.9558035  69.1382983
  23.5631070  53.2304864  69.0416036  23.7118388  54.7167396  68.7950058
  17.8469252  51.7289590  83.8782185  18.5568871  51.0882783  83.8368803
  17.8038560  51.9802485  84.8008365  25.8356031  58.6656944  86.7988764
  25.7768577  57.9816164  86.1319347  26.2375549  59.4075934  86.3469390
  16.5598186  48.7154808  85.6977824  16.0235543  48.2645547  86.3499420
  15.9714895  48.8500717  84.9548288  14.8546730  65.4818858  79.5922483
  15.0943328  66.1137382  80.2701501  14.0115926  65.1306898  79.8787842
  15.9700445  48.1743460  68.2604288  15.0929911  48.0532260  67.8966534
  16.4458198  47.3829538  68.0083176  25.8373438  56.6296528  85.0302744
  24.9500217  56.2922449  85.1529142  26.4071989  55.8979559  85.2671509
   7.4902585  52.9620619  78.3545795   8.1773625  52.6482349  77.7666810
   7.3350714  53.8661984  78.0813046  12.2937307  47.8510816  82.7830819
  12.2095496  47.2436486  82.0481229  11.4720014  48.3419834  82.7840315
  19.3674592  61.2897980  81.9963987  19.2944763  62.0952952  82.5083291
  18.9251985  61.4889946  81.1712008  19.1564371  60.5269750  75.5066808
  18.3731893  61.0691430  75.6005033  19.8557116  61.0443730  75.9061049
  22.4661021  46.3364380  78.1501014  22.9629721  45.5834342  77.8302084
  21.6948003  46.3728696  77.5844223  30.3190779  52.0404745  79.7919305
  30.3080655  52.9229460  79.4213238  29.4508158  51.6876296  79.5973842
  21.8273275  61.1884814  84.1522145  22.5401247  61.8232279  84.0798047
  21.3363304  61.2848680  83.3362147  23.5490802  55.0936067  75.7239437
  22.6147081  55.2137529  75.5544141  23.7267470  54.1908534  75.4599447
  19.0495990  48.4781763  77.8772698  18.6793778  47.9252803  78.5653604
  19.5455082  47.8739896  77.3247698  26.9363353  50.9353386  76.2589471
  27.4023805  51.7681378  76.1849774  27.3870854  50.4698368  76.9634730
  16.8785189  58.9379258  84.9727716  17.5794648  59.5715740  85.1257110
  16.4080304  59.2793989  84.2123355  25.0039584  57.2797207  73.2575623
  25.2799428  57.1653802  74.1669497  24.1344083  56.8814692  73.2187796
  24.9080016  43.3033973  80.2980373  23.9943096  43.5338200  80.4662579
  25.3373117  43.3872417  81.1494405  24.6786475  51.4923865  82.7980267
  24.0257925  51.7399772  82.1432719  25.0566854  50.6788003  82.4642744
  21.6393648  61.5283558  76.9008437  21.8216043  60.7105214  77.3636189
  22.4626634  61.7451250  76.4633327  21.9735814  60.4551743  74.1623485
  22.5023580  59.9444198  73.5493647  22.2364033  60.1394273  75.0269018
  20.7274048  52.2343676  89.2846304  20.0514685  52.1337805  89.9548679
  21.5501681  52.0782890  89.7482301  12.4752907  58.4715613  81.9058819
  13.0606343  57.7259300  82.0386723  12.2777745  58.7819569  82.7895483
  15.3291562  61.5066860  76.9221261  14.6601937  61.9912988  76.4385301
  15.1904432  61.7536080  77.8364640   7.0670561  51.0421213  80.6263262
   7.1054661  50.5084803  81.4200380   6.5610854  50.5156418  80.0074239
  19.4696830  63.5410603  83.5203920  20.0215138  63.7042225  84.2853005
  19.8103024  64.1315041  82.8483944  14.4461324  45.8885753  84.1225804
  14.5102650  46.7500584  83.7103202  14.3828444  45.2759755  83.3898163
  13.9213596  47.9608886  87.7698839  14.5485635  47.5785963  88.3836363
  13.0641515  47.7423088  88.1354531  24.3207705  58.3671861  89.3752574
  24.8647609  58.9801819  88.8807529  23.7394550  58.9251439  89.8919587
  10.6979139  49.7685315  73.7017193  10.9932580  48.8595993  73.6484247
   9.7967175  49.7473054  73.3798196  22.6065218  61.4892579  80.5067602
  22.4816357  60.6882319  79.9978547  23.2644309  61.9838772  80.0181572
  14.2273386  47.8441311  79.6844742  13.5059972  48.4577279  79.5452215
  15.0166642  48.3799076  79.6061388  24.6700126  59.2901599  82.1347152
  23.7230462  59.1706950  82.0625479  25.0182899  58.4024097  82.2173413
  17.0299699  45.1795738  85.9585394  17.5534101  45.4258035  86.7211703
  16.8112033  46.0115773  85.5388531  12.4266981  47.4499413  73.8256519
  12.0979687  46.5696792  73.6431625  12.7806351  47.3947081  74.7132908
  21.6746559  59.0854315  78.3351504  21.5271522  58.1571023  78.5159074
  22.5000053  59.1074406  77.8508579  15.5408804  47.7372382  74.1931996
  15.8804876  48.2658304  73.4710605  15.9880924  48.0752789  74.9690563
  25.2780681  59.9082874  79.4216377  26.2027229  59.7025735  79.2840828
  25.1095985  59.6599275  80.3305718  18.2352245  46.1209433  83.6435064
  17.8949065  45.3217246  84.0455744  17.5291251  46.4211144  83.0711898
  18.8868716  43.2058746  82.0962387  19.7094786  42.7319224  81.9741278
  19.1306780  43.9849229  82.5961074  17.5276951  46.2347004  72.3925289
  18.2485313  46.6128257  71.8889006  16.9042255  46.9535881  72.4960267
  21.6708074  46.9392153  73.3283621  21.8871688  47.8216791  73.0272450
  21.1902141  46.5478366  72.5989263  16.4107295  49.8977866  79.9054366
  16.2651876  50.2118169  80.7978647  15.9332499  50.5162766  79.3525265
  18.2703678  46.8880414  79.9535256  18.2565247  45.9921507  79.6167553
  18.9876106  46.8951078  80.5873542  20.1229809  47.3217754  81.9988383
  19.8647587  48.2434825  81.9972713  19.5914849  46.9248189  82.6888847
  25.0675997  60.4268541  74.7778468  25.2412875  59.8614964  74.0252321
  25.5604889  61.2269436  74.5957958  10.8852957  52.4383211  82.8442027
  10.3406425  53.2143019  82.9762301  11.7632307  52.7854015  82.6861149
  17.6740574  45.7694794  75.2222826  17.7956485  44.8411441  75.4213713
  17.3842616  45.7833480  74.3101141  20.5431764  43.4549705  78.3589545
  20.5653461  43.5189038  77.4041525  20.9599823  42.6154214  78.5530052
  30.9215389  53.1904964  76.3968768  31.3646535  52.4412290  75.9987891
  30.0441899  53.1815101  76.0142500  26.0551170  59.7435306  71.8775367
  26.7502075  60.3641999  72.0962681  26.3974320  58.8930657  72.1527744
  11.6718979  51.5653107  85.7372184  10.9300715  51.7135742  86.3236814
  11.3511723  51.8261372  84.8738933  27.9542593  57.1935011  73.4062697
  28.4793917  57.5322284  72.6812017  27.8664946  56.2582027  73.2225832
  19.6162642  61.1069085  85.5352574  19.9249768  60.8618232  86.4075274
  20.4138124  61.3115724  85.0471444  19.6383254  63.2606995  77.7657951
  19.1988244  62.7683373  78.4590807  20.3891371  62.7179962  77.5250026
  12.1175593  59.4518536  77.7682579  12.9433613  59.1522307  77.3881222
  11.7669645  58.6826158  78.2172367  17.0857126  58.8045004  79.8380252
  16.4637135  58.1415709  79.5382480  17.7561993  58.8306136  79.1553900
  10.3184198  57.3704862  78.7271512   9.4816106  56.9427036  78.5455513
  10.2907843  57.5637305  79.6642303  17.1581653  47.2826792  89.4312758
  17.2069809  48.1588915  89.0490528  17.7004168  46.7404185  88.8584401
  27.6436499  57.8267915  88.7113895  26.8532043  57.8092054  88.1718395
  27.4069854  58.3656209  89.4662932  27.7634374  54.6760381  86.0246624
  27.8132379  54.5110389  86.9662147  27.6548298  53.8087640  85.6344505
  16.6470633  57.3548927  73.3138713  16.7958753  58.0384392  72.6605386
  17.4537076  57.3354017  73.8288168  25.0538137  50.6591309  87.3405931
  25.9547999  50.5197774  87.0489928  25.1286111  50.8245764  88.2804108
  19.3880942  48.0358164  86.1859117  18.5184251  48.3291730  85.9141705
  19.6240422  48.6198609  86.9066381  29.2652571  57.0957323  86.2688645
  28.9737379  57.4587303  87.1052106  28.6524702  56.3824331  86.0901977
  30.4648253  54.6610203  78.7891216  31.2995145  55.1000007  78.9528776
  30.6007382  54.1848856  77.9699461  27.5139759  52.2189938  84.7368703
  27.9893881  52.4117584  83.9287555  26.5905325  52.2749123  84.4912087
  14.4023266  53.3814105  74.3199782  14.1569308  52.4776435  74.5179992
  14.5719180  53.3831255  73.3779260  22.0919976  44.2537781  83.7024537
  22.6101920  44.9898808  83.3771026  21.7375108  44.5601774  84.5371296
  13.6718913  49.1142462  71.8185943  12.9788158  49.1886817  71.1625979
  13.4270665  48.3502806  72.3407460  22.3432570  40.6738064  79.2225434
  22.6234324  40.0061253  79.8485860  23.1283177  40.8667159  78.7100098
  20.1466038  59.8497058  70.7850460  19.5740005  60.4687245  70.3320932
  20.7198832  60.3996419  71.3190382  26.2141428  49.0955698  82.9697009
  27.1658851  49.1953795  82.9909233  26.0444879  48.3033966  83.4795093
  24.2355808  46.1811281  83.1556410  23.6405740  46.4616294  82.4602899
  23.9505504  46.6705182  83.9273151  23.3663298  60.1334208  71.9159042
  24.2993971  60.0679769  72.1191918  23.2786511  60.9690475  71.4573575
  25.9951315  59.4500078  68.8762990  25.9164946  59.1159942  69.7698748
  26.8160982  59.9421846  68.8754462  28.6929506  52.3161817  82.0839309
  28.6605826  51.3777818  82.2698992  29.3030130  52.3945854  81.3505134
  20.5312837  51.1857870  68.1266513  21.4771942  51.0564078  68.1954931
  20.1527082  50.4472532  68.6035941  28.8423995  49.1072861  82.1297592
  28.3263043  48.3231317  81.9427521  29.7263943  48.7791577  82.2944111
  26.5034721  42.8513876  78.0893404  26.3059543  42.5428965  78.9736736
  27.1134427  43.5775515  78.2191334  34.5106056  53.3777824  81.2245345
  35.2409444  53.1163112  81.7853049  33.9013001  52.6406546  81.2647413
  32.5921353  51.5185687  81.8219797  31.8654517  51.3841652  81.2136288
  32.1768640  51.8262515  82.6276515  20.4151529  55.2375616  89.5867170
  21.3354539  55.4154215  89.7807216  20.3801112  54.2931662  89.4346869
  18.7155754  49.1107847  68.0621398  17.8087209  48.8140959  68.1384112
  18.9931735  48.8137665  67.1955684   9.6333694  50.4314210  78.5120444
   9.3136479  49.5779518  78.2194818   9.0867123  50.6462788  79.2678412
  13.4113602  53.1476651  82.2289951  13.6299612  54.0793759  82.2477985
  13.8239376  52.7884626  83.0144755  20.3317820  43.6544736  74.2165639
  19.5218548  43.3091821  74.5920885  21.0202237  43.3452280  74.8053251
  22.2608368  42.7322783  75.8389936  22.8139407  43.1518237  76.4979959
  22.4978454  41.8058531  75.8812892  18.2841467  48.7209857  91.6192700
  18.1838194  49.6704214  91.5504791  18.0663009  48.3928096  90.7468770
  17.4854539  45.9694782  68.2033377  18.3473703  46.2949680  68.4629194
  17.6704883  45.1826278  67.6906443   9.5021954  54.0517122  80.4813566
   8.8085426  53.6371074  79.9683520  10.2494945  54.0937658  79.8846985
  25.6387175  44.8423308  75.3468600  25.0585844  45.5008112  74.9646653
  25.3723108  44.0200653  74.9356018  24.0890742  44.2428366  77.5489920
  24.5890520  44.3544901  76.7404239  24.7326349  43.9389419  78.1890729
  18.1472737  52.1506996  90.4357761  17.6639819  52.9507356  90.6421650
  18.2333676  52.1614941  89.4825205  11.4158697  53.9835375  78.3579581
  11.3929385  54.0823063  77.4061464  11.7259333  54.8300526  78.6796747
  14.0746075  56.0411530  82.4726195  15.0289328  56.0095473  82.4056127
  13.8758598  55.5802154  83.2876421  14.6645457  54.6112646  85.0396993
  15.4838346  55.1056725  85.0631830  14.9382265  53.6944615  85.0114560
  24.4212053  47.0023399  74.4024948  23.5337908  47.2873049  74.1845143
  24.8366042  46.8417162  73.5552225  27.7726589  47.0269920  78.1179288
  28.5486979  47.5166372  78.3903904  27.0474723  47.4527974  78.5751157
  30.2099148  47.7397539  79.1753228  30.8043639  47.4993275  78.4646536
  30.2825732  47.0204670  79.8026765  12.4296304  61.5831150  79.4896393
  12.2950772  60.8231551  78.9234391  12.0128366  62.3072050  79.0225182
  23.5655267  56.7668073  68.4972968  24.2691117  56.9718076  69.1130624
  22.8417915  57.3344835  68.7622052  24.3953077  52.5177935  74.6175239
  24.3388278  52.9746486  73.7782871  24.9481419  51.7568619  74.4398081
  28.2057883  48.3067667  75.4425358  27.9494817  47.9064302  76.2733566
  27.5810751  49.0211461  75.3175497  32.5170221  51.0463740  77.9496649
  31.9569779  51.1156929  78.7228211  31.9113724  50.8704724  77.2296146
  15.5865429  62.4800467  79.7014836  15.4697814  63.4245899  79.5993526
  14.7657876  62.1774028  80.0900635  25.4741964  57.2050603  70.5471428
  26.3087568  56.7731801  70.3648903  25.3126307  57.0332616  71.4748323
  25.1287856  53.7082716  71.9127768  25.0736660  53.5426987  70.9716212
  24.5033911  54.4158749  72.0689957   9.9180371  48.9450780  85.7389190
  10.5639235  48.4349734  86.2276415   9.7097522  49.6819462  86.3132615
  22.4433763  56.0131628  91.2381330  23.3124923  56.1872280  90.8767965
  21.9640515  56.8326045  91.1157060  18.4383982  43.2090825  71.4913086
  18.4262651  44.1532665  71.6481357  19.3307404  43.0260970  71.1972547
  16.6119944  63.1328729  82.9170764  17.5147190  63.1652339  83.2337259
  16.3857314  62.2029180  82.9317100  18.3673546  61.8859715  79.5780843
  17.4169177  61.8861577  79.4645215  18.6706032  61.1392450  79.0616877
  22.2536101  39.8033602  75.7459023  21.4868497  39.2492088  75.8915705
  22.6646806  39.8755470  76.6073175  14.2577862  46.0918397  89.8364204
  15.1209324  45.7355202  90.0467529  13.6843273  45.7532292  90.5239608
  34.1026239  67.7220254  80.6426605  34.7404649  67.6027001  79.9389945
  33.9847082  68.6701098  80.7014557  30.9115945  67.6747682  80.5788130
  30.5734457  67.5588747  79.6908665  31.7805714  67.2738847  80.5589136
  26.7702761  69.5283158  76.5685021  26.2067626  69.4373095  75.8001309
  26.6555156  68.7083063  77.0487513  31.3935728  68.8282534  86.5374335
  31.3824369  68.4335332  85.6654839  31.5556368  68.0948606  87.1308107
  24.3167193  71.0234350  79.4069241  25.1088485  70.6825175  78.9915541
  24.5563843  71.1329325  80.3271395  32.3502320  73.1954126  71.8799486
  31.6990300  73.7808206  71.4933499  33.1446683  73.7260321  71.9394523
  26.2757947  70.2843263  72.2786620  27.0488823  69.7372250  72.1399496
  26.6283346  71.1487512  72.4901081  28.1142990  71.6119645  85.4853519
  27.8232856  72.5165276  85.3700186  28.7499974  71.6536173  86.1997589
  29.0399196  68.9896494  82.0754879  29.6362769  68.7652516  81.3611842
  29.0974168  68.2481239  82.6780327  28.6124225  66.4435929  69.9105070
  28.8649745  65.9217451  69.1488533  27.6748784  66.2802075  70.0131754
  33.6567508  65.4471708  77.7179813  34.4430597  65.0291131  77.3670230
  33.9206212  66.3517800  77.8861462  33.8277585  70.8844558  72.4168470
  33.1923418  70.9579184  73.1289375  33.4974991  71.4738157  71.7387549
  39.0575935  65.3846941  78.6212792  39.7901107  64.8146158  78.8550621
  38.3015290  64.9968541  79.0619297  28.3320514  68.3464035  72.1129445
  28.2156772  67.6708939  72.7810529  28.4422773  67.8596409  71.2961598
  30.6752054  67.8074182  75.8176134  30.3110262  67.2804803  76.5289056
  31.5319170  67.4172651  75.6442620  36.5801355  59.0968515  83.0807400
  36.2484680  59.9663926  82.8568615  35.9846968  58.7804799  83.7601431
  30.3157541  62.8364082  70.8137483  30.4831944  63.7044318  71.1807954
  30.1254711  62.9991364  69.8898772  33.0732875  71.2981061  82.4803313
  32.7733598  72.2006100  82.3719120  32.7283934  71.0313244  83.3324466
  26.5245356  67.7494858  78.5140017  25.5995853  67.6171072  78.7217709
  26.7729769  68.5289077  79.0109960  36.4730018  63.8163601  80.1600750
  35.5646896  63.7479010  79.8659511  36.4217614  64.2935546  80.9882576
  30.2946762  65.2921739  71.7984150  30.1746388  65.7378790  72.6369630
  29.5999351  65.6407057  71.2397688  23.8854167  67.3928131  79.3483807
  24.0146548  67.6462610  80.2623218  23.2051618  67.9855839  79.0288462
  28.0553654  78.0625381  75.4474281  27.9777684  79.0133206  75.5262761
  27.4515298  77.7171254  76.1049207  30.5470884  65.2353247  88.1035648
  29.7704218  65.7947167  88.0938512  31.1861447  65.7210030  88.6250518
  38.3391665  62.0180039  81.9378624  37.6966045  62.3112573  81.2918419
  37.8346593  61.9032960  82.7431821  35.9931828  65.7643213  72.6264484
  36.9049685  65.9970599  72.4512181  35.4841476  66.3480257  72.0639562
  28.8017256  68.0438700  87.6653615  29.5431941  68.5823744  87.3888438
  28.0954242  68.6704989  87.8225166  34.2772596  70.1867841  86.2625776
  34.6855952  69.7450251  85.5180408  33.5549858  69.6120468  86.5159969
  30.6303666  65.1240447  83.6359333  31.4764861  65.5479861  83.7793982
  30.5702304  64.4674072  84.3297896  34.6001411  70.7469031  80.0178065
  33.9710273  70.9114745  79.3154133  34.2127073  71.1610641  80.7889029
  38.4790643  71.6823469  77.3722429  37.7941681  72.0622370  76.8219462
  38.5634492  72.2918796  78.1054377  33.7803112  62.7844816  85.2940507
  33.5364043  63.5386876  84.7574782  34.0563042  63.1630163  86.1287754
  35.7341574  69.3283428  83.9717772  35.9458470  69.9715188  83.2952153
  35.6871323  68.4945745  83.5039702  33.3367803  61.9401249  80.8754344
  32.4752282  62.2382502  81.1671082  33.3630238  62.1571648  79.9435377
  30.1529373  70.4843439  77.2828150  30.6167718  70.7631142  76.4932773
  29.8886171  69.5826884  77.1001241  27.0453454  70.0314921  80.2207913
  27.6154811  70.4602189  79.5825398  27.6361566  69.7497505  80.9192099
  29.0898259  66.6066592  74.0917715  29.7922302  67.0587635  74.5591642
  28.7578887  65.9650410  74.7197608  27.5378620  65.1978348  88.4668925
  26.9077281  65.8794629  88.7004321  27.4314708  65.0861430  87.5222063
  22.8323593  64.8650144  79.3934849  22.0422647  65.1207673  78.9174959
  23.3234840  65.6798482  79.4986889  36.8487402  72.2055383  82.1440130
  37.6704846  71.8035571  81.8622811  36.8449805  72.1023618  83.0956245
  24.7838338  65.2294723  76.3518326  23.9869501  65.3413418  76.8701821
  24.5563930  65.5681376  75.4859216  30.6144006  71.7539427  84.3000840
  30.6788438  72.2159834  85.1359012  29.9054930  71.1236792  84.4283150
  21.1161296  65.1180635  81.8249840  21.3669334  66.0027645  82.0907416
  21.6520844  64.9385236  81.0524931  30.3292023  73.4207534  74.1679820
  30.1937698  74.2659070  74.5964668  30.8701836  73.6226812  73.4045754
  26.8159363  59.4999114  90.8294176  26.4226309  58.9465313  91.5041820
  27.6325503  59.8109693  91.2200693  23.7821421  70.9382972  74.7407746
  24.2945941  71.7326223  74.8913310  24.4344134  70.2409263  74.6741347
  25.5916305  74.0548729  76.8230499  25.7682934  74.9766693  76.6351483
  26.3873139  73.7407148  77.2524879  29.7327324  60.9156993  88.4214432
  30.4737037  61.5164146  88.3418895  29.9645247  60.1734631  87.8632475
  24.8768662  66.1013360  86.6992662  24.7622177  65.1998618  86.9999761
  24.0213180  66.3477057  86.3477478  31.9560500  74.0431101  88.2980163
  31.5124354  73.2567479  87.9801067  32.6177713  74.2310251  87.6324053
  26.7147621  75.5726902  82.8240841  27.2655046  75.4443966  82.0517835
  25.8759097  75.8721791  82.4735734  34.0541738  74.3233901  86.3261564
  34.0360213  75.1442782  85.8341833  34.9761658  74.1987976  86.5511705
  30.5114792  71.8378030  87.1685072  31.0443129  71.0766318  86.9384380
  29.9828873  71.5451682  87.9109227  33.6784487  56.9438096  82.6978714
  33.3348756  57.8339738  82.6217825  34.0463449  56.7539754  81.8348299
  21.7470338  69.2671627  75.5167316  22.5845560  69.6768635  75.3001024
  21.9248605  68.3271069  75.4867510  33.6434770  66.9346707  71.2051149
  33.1281393  67.7051312  71.4439536  33.3712078  66.2611843  71.8284210
  31.2281881  61.7796408  76.2636387  30.3723477  61.3903258  76.0842026
  31.6408832  61.8588369  75.4036173  32.7581027  59.3142751  80.6627947
  32.2545823  59.2772886  79.8495752  33.0511634  60.2235494  80.7224604
  29.0023913  59.3981481  79.6694129  29.8676910  59.2024290  79.3100018
  29.0701422  59.1691833  80.5963486  38.6169044  69.6879062  73.1404323
  37.8398487  69.3490221  72.6959485  39.2960525  69.6931685  72.4659288
  33.4321073  64.8073799  73.0310930  33.1271208  65.1219948  73.8821073
  34.3851515  64.8855219  73.0738263  31.8767505  70.9664023  74.6803884
  31.3488866  70.2316782  74.3677122  31.3755007  71.7438699  74.4343853
  36.8560351  69.1613043  79.7970931  36.1984025  69.8512304  79.8851059
  37.6600750  69.5509475  80.1404917  26.6086232  61.6283689  77.0410496
  27.1829984  61.4058870  76.3083689  27.1957215  61.6972383  77.7939097
  35.6665809  67.5157416  77.8474872  36.1797691  68.1487408  78.3496582
  36.3167033  66.9158611  77.4818232  26.9355819  63.6588150  71.0606381
  26.0993132  63.9962836  71.3815656  26.7960589  63.5237130  70.1233518
  28.9108900  58.5024938  75.7685565  28.2573312  58.1873955  75.1442180
  28.8689374  57.8800678  76.4945388  30.0220105  68.7844233  67.6838857
  29.1147167  68.5533486  67.8830006  30.5191137  67.9881852  67.8712839
  32.9288184  77.4941740  70.6035543  32.2549882  77.7973437  71.2120501
  33.3154006  78.2970820  70.2541000  32.1446640  64.9906871  80.0933213
  31.2269202  65.2121818  79.9354901  32.5606784  65.0653182  79.2344920
  32.9281688  66.3898287  75.2235893  33.6753507  66.9019684  74.9143015
  33.1973278  66.0682340  76.0840287  31.2008338  68.8856828  72.2062847
  30.2919558  68.6015861  72.3035317  31.2303422  69.3055906  71.3466154
  36.4327606  72.4963417  75.9754015  35.9789933  71.6554327  76.0319205
  35.8021572  73.1324816  76.3128795  35.3760525  63.4255403  77.2054682
  34.6383282  62.9132789  77.5364925  35.6287299  62.9855785  76.3937959
  34.8760545  74.3339914  76.9103833  35.1683519  74.8944971  76.1916199
  35.3859165  74.6268475  77.6656992  35.4772153  56.2031655  77.7996452
  35.7831029  55.3429019  77.5122367  36.2024757  56.7949275  77.5995446
  21.7696509  66.6062342  76.1878050  21.5720908  66.0131703  75.4629116
  21.2143173  66.3014552  76.9053988  29.7493232  66.4985448  78.3072643
  29.8041842  65.5459285  78.2315119  28.9384434  66.6544887  78.7913941
  30.8984426  70.4265571  69.5450926  30.4603856  69.7101430  69.0856563
  31.6394867  70.6541686  68.9836017  27.6885592  65.1162508  76.0663022
  26.8753458  65.4156679  76.4728214  28.1844586  64.7218197  76.7837504
  29.8394170  75.1120265  77.9997286  29.7970349  75.3381111  77.0705818
  30.7556869  74.8783640  78.1483087  33.2859804  65.5804333  84.8977915
  33.6409192  65.8075806  85.7572381  33.9331935  65.9122709  84.2755171
  39.0157541  68.7022768  75.6027244  38.8775439  68.8924364  74.6748434
  38.6593760  69.4642151  76.0595296  27.1799667  62.6880864  81.6824257
  27.8199046  62.5469623  80.9847220  26.3477198  62.4015377  81.3062858
  39.0426920  70.7699295  80.6138516  39.4763427  70.6774585  81.4621570
  39.7558501  70.7456796  79.9758532  27.9559971  71.9883294  77.7959249
  28.7500569  71.4933614  77.5941824  27.2451663  71.4601157  77.4326955
  32.7754815  74.3701390  82.1471617  32.8291838  74.9392326  82.9149332
  31.9069597  74.5403275  81.7825654  24.2642734  66.1326376  73.8719002
  23.3340322  66.0710831  74.0888964  24.3600206  65.6102329  73.0755643
  24.1828283  62.6581189  76.4597243  24.4435101  63.5726522  76.3506404
  25.0045456  62.1905631  76.6093856  25.6553209  64.0718946  83.6296068
  26.3276262  63.8636308  82.9808717  24.8282995  63.8741032  83.1901300
  39.9042470  70.8122996  83.1471401  40.0978360  71.7168807  83.3930676
  39.8043088  70.3530415  83.9809986  31.5578781  60.6980887  85.6461729
  30.9106696  61.3970836  85.5526205  32.3279796  61.1317031  86.0137977
  34.9657579  70.9629739  88.7212282  34.8143085  70.7340291  87.8042366
  34.9562258  71.9200340  88.7343627  31.7342915  68.5361652  83.7058548
  32.6634975  68.6872811  83.5327516  31.3133945  68.6245672  82.8507195
  30.5331247  72.5612316  81.4757086  30.3942333  72.1931100  82.3483024
  29.7445843  73.0759955  81.3041044  31.1279399  77.6621412  72.8182623
  31.3031155  77.1909456  73.6328245  30.4412187  78.2887179  73.0463883
  32.0836462  71.9393919  78.8645924  31.7486295  71.8994689  79.7603574
  31.5840408  71.2738635  78.3916334  26.0580706  67.3461549  84.3898505
  25.9200504  66.6141788  84.9910044  26.9685629  67.2570449  84.1082693
  35.0195654  69.2849953  69.1382983  34.4024824  68.5596781  69.0416036
  34.5512142  70.0459313  68.7950058  28.6863007  67.0581508  83.8782185
  29.3962625  66.4174700  83.8368803  28.6432315  67.3094403  84.8008365
  36.6749785  73.9948861  86.7988764  36.6162331  73.3108082  86.1319347
  37.0769304  74.7367851  86.3469390  27.3991941  64.0446726  85.6977824
  26.8629298  63.5937464  86.3499420  26.8108649  64.1792635  84.9548288
  25.6940484  80.8110775  79.5922483  25.9337082  81.4429299  80.2701501
  24.8509681  80.4598815  79.8787842  26.8094200  63.5035377  68.2604288
  25.9323666  63.3824178  67.8966534  27.2851953  62.7121456  68.0083176
  36.6767193  71.9588445  85.0302744  35.7893971  71.6214367  85.1529142
  37.2465744  71.2271477  85.2671509  18.3296340  68.2912537  78.3545795
  19.0167380  67.9774267  77.7666810  18.1744468  69.1953902  78.0813046
  23.1331062  63.1802734  82.7830819  23.0489251  62.5728403  82.0481229
  22.3113768  63.6711752  82.7840315  30.2068346  76.6189898  81.9963987
  30.1338517  77.4244869  82.5083291  29.7645739  76.8181864  81.1712008
  29.9958126  75.8561668  75.5066808  29.2125648  76.3983348  75.6005033
  30.6950871  76.3735647  75.9061049  33.3054776  61.6656297  78.1501014
  33.8023475  60.9126260  77.8302084  32.5341757  61.7020614  77.5844223
  41.1584533  67.3696663  79.7919305  41.1474409  68.2521378  79.4213238
  40.2901913  67.0168214  79.5973842  32.6667030  76.5176732  84.1522145
  33.3795002  77.1524197  84.0798047  32.1757058  76.6140598  83.3362147
  34.3884556  70.4227984  75.7239437  33.4540835  70.5429447  75.5544141
  34.5661225  69.5200451  75.4599447  29.8889744  63.8073680  77.8772698
  29.5187532  63.2544721  78.5653604  30.3848837  63.2031814  77.3247698
  37.7757108  66.2645304  76.2589471  38.2417560  67.0973295  76.1849774
  38.2264608  65.7990285  76.9634730  27.7178943  74.2671175  84.9727716
  28.4188403  74.9007658  85.1257110  27.2474058  74.6085907  84.2123355
  35.8433339  72.6089125  73.2575623  36.1193183  72.4945720  74.1669497
  34.9737838  72.2106610  73.2187796  35.7473771  58.6325891  80.2980373
  34.8336850  58.8630118  80.4662579  36.1766872  58.7164335  81.1494405
  35.5180229  66.8215783  82.7980267  34.8651679  67.0691690  82.1432719
  35.8960609  66.0079921  82.4642744  32.4787403  76.8575476  76.9008437
  32.6609797  76.0397132  77.3636189  33.3020389  77.0743168  76.4633327
  32.8129568  75.7843661  74.1623485  33.3417335  75.2736116  73.5493647
  33.0757788  75.4686191  75.0269018  31.5667802  67.5635594  89.2846304
  30.8908439  67.4629723  89.9548679  32.3895436  67.4074807  89.7482301
  23.3146661  73.8007530  81.9058819  23.9000098  73.0551218  82.0386723
  23.1171500  74.1111487  82.7895483  26.1685316  76.8358778  76.9221261
  25.4995692  77.3204905  76.4385301  26.0298186  77.0827998  77.8364640
  17.9064316  66.3713130  80.6263262  17.9448415  65.8376721  81.4200380
  17.4004609  65.8448336  80.0074239  30.3090585  78.8702521  83.5203920
  30.8608893  79.0334143  84.2853005  30.6496778  79.4606959  82.8483944
  25.2855078  61.2177671  84.1225804  25.3496405  62.0792502  83.7103202
  25.2222198  60.6051673  83.3898163  24.7607351  63.2900803  87.7698839
  25.3879389  62.9077881  88.3836363  23.9035270  63.0715005  88.1354531
  35.1601459  73.6963779  89.3752574  35.7041363  74.3093737  88.8807529
  34.5788304  74.2543357  89.8919587  21.5372893  65.0977233  73.7017193
  21.8326335  64.1887911  73.6484247  20.6360929  65.0764972  73.3798196
  33.4458972  76.8184497  80.5067602  33.3210112  76.0174237  79.9978547
  34.1038063  77.3130690  80.0181572  25.0667140  63.1733229  79.6844742
  24.3453726  63.7869197  79.5452215  25.8560396  63.7090994  79.6061388
  35.5093881  74.6193517  82.1347152  34.5624216  74.4998868  82.0625479
  35.8576654  73.7316015  82.2173413  27.8693454  60.5087656  85.9585394
  28.3927856  60.7549952  86.7211703  27.6505787  61.3407690  85.5388531
  23.2660735  62.7791330  73.8256519  22.9373441  61.8988709  73.6431625
  23.6200106  62.7238999  74.7132908  32.5140314  74.4146233  78.3351504
  32.3665276  73.4862940  78.5159074  33.3393807  74.4366324  77.8508579
  26.3802558  63.0664300  74.1931996  26.7198631  63.5950221  73.4710605
  26.8274679  63.4044706  74.9690563  36.1174436  75.2374792  79.4216377
  37.0420983  75.0317653  79.2840828  35.9489739  74.9891193  80.3305718
  29.0745999  61.4501351  83.6435064  28.7342819  60.6509164  84.0455744
  28.3685005  61.7503062  83.0711898  29.7262471  58.5350663  82.0962387
  30.5488540  58.0611141  81.9741278  29.9700534  59.3141147  82.5961074
  28.3670705  61.5638922  72.3925289  29.0879068  61.9420174  71.8889006
  27.7436009  62.2827798  72.4960267  32.5101828  62.2684071  73.3283621
  32.7265443  63.1508708  73.0272450  32.0295895  61.8770284  72.5989263
  27.2501050  65.2269784  79.9054366  27.1045630  65.5410087  80.7978647
  26.7726253  65.8454684  79.3525265  29.1097432  62.2172332  79.9535256
  29.0959001  61.3213425  79.6167553  29.8269861  62.2242996  80.5873542
  30.9623563  62.6509672  81.9988383  30.7041341  63.5726743  81.9972713
  30.4308604  62.2540107  82.6888847  35.9069752  75.7560459  74.7778468
  36.0806629  75.1906882  74.0252321  36.3998643  76.5561354  74.5957958
  21.7246712  67.7675128  82.8442027  21.1800180  68.5434936  82.9762301
  22.6026062  68.1145933  82.6861149  28.5134328  61.0986712  75.2222826
  28.6350240  60.1703358  75.4213713  28.2236371  61.1125398  74.3101141
  31.3825519  58.7841623  78.3589545  31.4047216  58.8480956  77.4041525
  31.7993578  57.9446131  78.5530052  41.7609143  68.5196882  76.3968768
  42.2040289  67.7704207  75.9987891  40.8835653  68.5107018  76.0142500
  36.8944924  75.0727224  71.8775367  37.5895829  75.6933916  72.0962681
  37.2368075  74.2222575  72.1527744  22.5112734  66.8945025  85.7372184
  21.7694470  67.0427660  86.3236814  22.1905478  67.1553290  84.8738933
  38.7936348  72.5226929  73.4062697  39.3187672  72.8614202  72.6812017
  38.7058700  71.5873944  73.2225832  30.4556396  76.4361003  85.5352574
  30.7643523  76.1910150  86.4075274  31.2531878  76.6407641  85.0471444
  30.4777008  78.5898912  77.7657951  30.0381999  78.0975291  78.4590807
  31.2285125  78.0471880  77.5250026  22.9569347  74.7810453  77.7682579
  23.7827367  74.4814225  77.3881222  22.6063399  74.0118076  78.2172367
  27.9250880  74.1336921  79.8380252  27.3030890  73.4707626  79.5382480
  28.5955747  74.1598053  79.1553900  21.1577952  72.6996780  78.7271512
  20.3209861  72.2718954  78.5455513  21.1301598  72.8929223  79.6642303
  27.9975408  62.6118709  89.4312758  28.0463563  63.4880832  89.0490528
  28.5397922  62.0696103  88.8584401  38.4830254  73.1559833  88.7113895
  37.6925797  73.1383972  88.1718395  38.2463608  73.6948126  89.4662932
  38.6028129  70.0052299  86.0246624  38.6526134  69.8402307  86.9662147
  38.4942052  69.1379558  85.6344505  27.4864387  72.6840845  73.3138713
  27.6352508  73.3676309  72.6605386  28.2930831  72.6645935  73.8288168
  35.8931891  65.9883227  87.3405931  36.7941754  65.8489692  87.0489928
  35.9679866  66.1537682  88.2804108  30.2274696  63.3650082  86.1859117
  29.3578006  63.6583648  85.9141705  30.4634177  63.9490527  86.9066381
  40.1046325  72.4249241  86.2688645  39.8131134  72.7879221  87.1052106
  39.4918457  71.7116249  86.0901977  41.3042008  69.9902120  78.7891216
  42.1388899  70.4291924  78.9528776  41.4401137  69.5140774  77.9699461
  38.3533514  67.5481855  84.7368703  38.8287635  67.7409502  83.9287555
  37.4299079  67.6041041  84.4912087  25.2417020  68.7106022  74.3199782
  24.9963062  67.8068352  74.5179992  25.4112935  68.7123173  73.3779260
  32.9313730  59.5829699  83.7024537  33.4495674  60.3190726  83.3771026
  32.5768863  59.8893692  84.5371296  24.5112668  64.4434380  71.8185943
  23.8181913  64.5178735  71.1625979  24.2664420  63.6794724  72.3407460
  33.1826324  56.0029981  79.2225434  33.4628078  55.3353170  79.8485860
  33.9676931  56.1959077  78.7100098  30.9859793  75.1788975  70.7850460
  30.4133760  75.7979162  70.3320932  31.5592587  75.7288337  71.3190382
  37.0535183  64.4247615  82.9697009  38.0052606  64.5245713  82.9909233
  36.8838633  63.6325884  83.4795093  35.0749562  61.5103199  83.1556410
  34.4799494  61.7908211  82.4602899  34.7899259  61.9997099  83.9273151
  34.2057053  75.4626125  71.9159042  35.1387726  75.3971687  72.1191918
  34.1180265  76.2982392  71.4573575  36.8345069  74.7791996  68.8762990
  36.7558701  74.4451859  69.7698748  37.6554736  75.2713764  68.8754462
  39.5323261  67.6453735  82.0839309  39.4999581  66.7069736  82.2698992
  40.1423884  67.7237772  81.3505134  31.3706591  66.5149788  68.1266513
  32.3165696  66.3855996  68.1954931  30.9920836  65.7764450  68.6035941
  39.6817749  64.4364778  82.1297592  39.1656798  63.6523235  81.9427521
  40.5657698  64.1083495  82.2944111  37.3428476  58.1805794  78.0893404
  37.1453297  57.8720882  78.9736736  37.9528181  58.9067433  78.2191334
  45.3499810  68.7069742  81.2245345  46.0803199  68.4455030  81.7853049
  44.7406756  67.9698464  81.2647413  43.4315107  66.8477604  81.8219797
  42.7048271  66.7133569  81.2136288  43.0162394  67.1554433  82.6276515
  31.2545284  70.5667534  89.5867170  32.1748293  70.7446133  89.7807216
  31.2194867  69.6223579  89.4346869  29.5549509  64.4399764  68.0621398
  28.6480964  64.1432877  68.1384112  29.8325490  64.1429582  67.1955684
  20.4727449  65.7606128  78.5120444  20.1530233  64.9071436  78.2194818
  19.9260877  65.9754706  79.2678412  24.2507356  68.4768569  82.2289951
  24.4693366  69.4085677  82.2477985  24.6633130  68.1176543  83.0144755
  31.1711574  58.9836654  74.2165639  30.3612303  58.6383739  74.5920885
  31.8595991  58.6744198  74.8053251  33.1002123  58.0614701  75.8389936
  33.6533161  58.4810154  76.4979959  33.3372209  57.1350449  75.8812892
  29.1235222  64.0501775  91.6192700  29.0231949  64.9996132  91.5504791
  28.9056764  63.7220013  90.7468770  28.3248293  61.2986700  68.2033377
  29.1867457  61.6241598  68.4629194  28.5098637  60.5118196  67.6906443
  20.3415709  69.3809039  80.4813566  19.6479180  68.9662992  79.9683520
  21.0888700  69.4229576  79.8846985  36.4780930  60.1715226  75.3468600
  35.8979599  60.8300030  74.9646653  36.2116862  59.3492571  74.9356018
  34.9284496  59.5720284  77.5489920  35.4284274  59.6836818  76.7404239
  35.5720104  59.2681337  78.1890729  28.9866492  67.4798913  90.4357761
  28.5033574  68.2799274  90.6421650  29.0727431  67.4906858  89.4825205
  22.2552451  69.3127293  78.3579581  22.2323140  69.4114980  77.4061464
  22.5653088  70.1592444  78.6796747  24.9139829  71.3703448  82.4726195
  25.8683083  71.3387390  82.4056127  24.7152353  70.9094072  83.2876421
  25.5039211  69.9404564  85.0396993  26.3232100  70.4348643  85.0631830
  25.7776019  69.0236532  85.0114560  35.2605808  62.3315316  74.4024948
  34.3731663  62.6164967  74.1845143  35.6759797  62.1709080  73.5552225
  38.6120344  62.3561837  78.1179288  39.3880734  62.8458290  78.3903904
  37.8868478  62.7819892  78.5751157  41.0492902  63.0689457  79.1753228
  41.6437393  62.8285193  78.4646536  41.1219486  62.3496587  79.8026765
  23.2690058  76.9123068  79.4896393  23.1344526  76.1523468  78.9234391
  22.8522120  77.6363967  79.0225182  34.4049021  72.0959991  68.4972968
  35.1084871  72.3009994  69.1130624  33.6811670  72.6636753  68.7622052
  35.2346831  67.8469852  74.6175239  35.1782033  68.3038404  73.7782871
  35.7875174  67.0860537  74.4398081  39.0451637  63.6359584  75.4425358
  38.7888572  63.2356220  76.2733566  38.4204505  64.3503378  75.3175497
  43.3563975  66.3755657  77.9496649  42.7963533  66.4448847  78.7228211
  42.7507479  66.1996642  77.2296146  26.4259184  77.8092385  79.7014836
  26.3091568  78.7537817  79.5993526  25.6051630  77.5065946  80.0900635
  36.3135719  72.5342520  70.5471428  37.1481322  72.1023719  70.3648903
  36.1520061  72.3624534  71.4748323  35.9681611  69.0374634  71.9127768
  35.9130414  68.8718905  70.9716212  35.3427666  69.7450667  72.0689957
  20.7574126  64.2742698  85.7389190  21.4032989  63.7641652  86.2276415
  20.5491277  65.0111380  86.3132615  33.2827518  71.3423545  91.2381330
  34.1518678  71.5164198  90.8767965  32.8034269  72.1617962  91.1157060
  29.2777736  58.5382743  71.4913086  29.2656406  59.4824583  71.6481357
  30.1701158  58.3552888  71.1972547  27.4513698  78.4620646  82.9170764
  28.3540945  78.4944257  83.2337259  27.2251068  77.5321097  82.9317100
  29.2067300  77.2151633  79.5780843  28.2562931  77.2153495  79.4645215
  29.5099786  76.4684368  79.0616877  33.0929856  55.1325519  75.7459023
  32.3262251  54.5784006  75.8915705  33.5040561  55.2047388  76.6073175
  25.0971617  61.4210315  89.8364204  25.9603078  61.0647120  90.0467529
  24.5237027  61.0824210  90.5239608  44.9419994  83.0512171  80.6426605
  45.5798404  82.9318919  79.9389945  44.8240836  83.9993015  80.7014557
  41.7509700  83.0039600  80.5788130  41.4128211  82.8880664  79.6908665
  42.6199468  82.6030765  80.5589136  37.6096516  84.8575076  76.5685021
  37.0461381  84.7665013  75.8001309  37.4948911  84.0374980  77.0487513
  35.1560948  86.3526268  79.4069241  35.9482239  86.0117092  78.9915541
  35.3957598  86.4621243  80.3271395  43.1896074  88.5246044  71.8799486
  42.5384054  89.1100124  71.4933499  43.9840437  89.0552239  71.9394523
  37.1151701  85.6135181  72.2786620  37.8882577  85.0664168  72.1399496
  37.4677100  86.4779430  72.4901081  38.9536744  86.9411563  85.4853519
  38.6626610  87.8457194  85.3700186  39.5893728  86.9828091  86.1997589
  39.8792951  84.3188412  82.0754879  40.4756523  84.0944434  81.3611842
  39.9367922  83.5773157  82.6780327  39.4517979  81.7727847  69.9105070
  39.7043500  81.2509368  69.1488533  38.5142538  81.6093992  70.0131754
  44.4961262  80.7763625  77.7179813  45.2824351  80.3583048  77.3670230
  44.7599966  81.6809717  77.8861462  44.6671339  86.2136476  72.4168470
  44.0317172  86.2871102  73.1289375  44.3368746  86.8030074  71.7387549
  39.1714268  83.6755953  72.1129445  39.0550526  83.0000856  72.7810529
  39.2816528  83.1888327  71.2961598  41.5145809  83.1366100  75.8176134
  41.1504016  82.6096721  76.5289056  42.3712925  82.7464569  75.6442620
  47.4195110  74.4260433  83.0807400  47.0878434  75.2955844  82.8568615
  46.8240723  74.1096717  83.7601431  41.1551296  78.1656000  70.8137483
  41.3225698  79.0336236  71.1807954  40.9648465  78.3283281  69.8898772
  37.3639111  83.0786775  78.5140017  36.4389607  82.9462990  78.7217709
  37.6123524  83.8580995  79.0109960  41.1340517  80.6213657  71.7984150
  41.0140142  81.0670708  72.6369630  40.4393105  80.9698975  71.2397688
  34.7247922  82.7220049  79.3483807  34.8540303  82.9754528  80.2623218
  34.0445373  83.3147757  79.0288462  38.8947409  93.3917299  75.4474281
  38.8171439  94.3425124  75.5262761  38.2909052  93.0463171  76.1049207
  41.3864639  80.5645164  88.1035648  40.6097973  81.1239084  88.0938512
  42.0255202  81.0501947  88.6250518  49.1785419  77.3471957  81.9378624
  48.5359800  77.6404490  81.2918419  48.6740348  77.2324877  82.7431821
  46.8325583  81.0935130  72.6264484  47.7443439  81.3262517  72.4512181
  46.3235230  81.6772175  72.0639562  39.6411011  83.3730618  87.6653615
  40.3825695  83.9115662  87.3888438  38.9347996  83.9996906  87.8225166
  41.4697421  80.4532365  83.6359333  42.3158616  80.8771779  83.7793982
  41.4096058  79.7965989  84.3297896  44.6196866  78.1136733  85.2940507
  44.3757798  78.8678794  84.7574782  44.8956797  78.4922081  86.1287754
  44.1761558  77.2693166  80.8754344  43.3146037  77.5674420  81.1671082
  44.2023992  77.4863565  79.9435377  40.9923127  85.8135357  77.2828150
  41.4561473  86.0923060  76.4932773  40.7279925  84.9118801  77.1001241
  37.8847208  85.3606838  80.2207913  38.4548565  85.7894107  79.5825398
  38.4755320  85.0789423  80.9192099  39.9292013  81.9358509  74.0917715
  40.6316057  82.3879553  74.5591642  39.5972642  81.2942328  74.7197608
  38.3772375  80.5270266  88.4668925  37.7471035  81.2086547  88.7004321
  38.2708463  80.4153347  87.5222063  33.6717347  80.1942062  79.3934849
  32.8816401  80.4499590  78.9174959  34.1628595  81.0090400  79.4986889
  35.6232093  80.5586641  76.3518326  34.8263256  80.6705335  76.8701821
  35.3957685  80.8973293  75.4859216  41.4537760  87.0831344  84.3000840
  41.5182193  87.5451752  85.1359012  40.7448684  86.4528709  84.4283150
  31.9555050  80.4472552  81.8249840  32.2063089  81.3319562  82.0907416
  32.4914599  80.2677154  81.0524931  41.1685778  88.7499452  74.1679820
  41.0331453  89.5950988  74.5964668  41.7095590  88.9518730  73.4045754
  37.6553117  74.8291032  90.8294176  37.2620063  74.2757230  91.5041820
  38.4719258  75.1401610  91.2200693  34.6215175  86.2674890  74.7407746
  35.1339696  87.0618140  74.8913310  35.2737888  85.5701180  74.6741347
  36.4310060  89.3840646  76.8230499  36.6076688  90.3058611  76.6351483
  37.2266893  89.0699065  77.2524879  40.5721078  76.2448911  88.4214432
  41.3130792  76.8456064  88.3418895  40.8039001  75.5026549  87.8632475
  35.7162416  81.4305278  86.6992662  35.6015932  80.5290535  86.9999761
  34.8606934  81.6768975  86.3477478  42.7954254  89.3723018  88.2980163
  42.3518108  88.5859397  87.9801067  43.4571468  89.5602169  87.6324053
  37.5541375  90.9018820  82.8240841  38.1048800  90.7735883  82.0517835
  36.7152851  91.2013709  82.4735734  41.3508546  87.1669948  87.1685072
  41.8836883  86.4058236  86.9384380  40.8222628  86.8743600  87.9109227
  44.5178241  72.2730014  82.6978714  44.1742511  73.1631655  82.6217825
  44.8857204  72.0831671  81.8348299  32.5864092  84.5963544  75.5167316
  33.4239314  85.0060553  75.3001024  32.7642360  83.6562986  75.4867510
  44.4828524  82.2638625  71.2051149  43.9675148  83.0343230  71.4439536
  44.2105833  81.5903761  71.8284210  42.0675635  77.1088326  76.2636387
  41.2117231  76.7195176  76.0842026  42.4802587  77.1880286  75.4036173
  43.5974782  74.6434669  80.6627947  43.0939577  74.6064804  79.8495752
  43.8905389  75.5527412  80.7224604  39.8417668  74.7273399  79.6694129
  40.7070664  74.5316207  79.3100018  39.9095177  74.4983750  80.5963486
  44.2714827  80.1365717  73.0310930  43.9664963  80.4511866  73.8821073
  45.2245269  80.2147137  73.0738263  42.7161259  86.2955940  74.6803884
  42.1882621  85.5608700  74.3677122  42.2148762  87.0730617  74.4343853
  37.4479987  76.9575607  77.0410496  38.0223739  76.7350788  76.3083689
  38.0350969  77.0264301  77.7939097  37.7749574  78.9880068  71.0606381
  36.9386886  79.3254754  71.3815656  37.6354343  78.8529047  70.1233518
  39.7502654  73.8316855  75.7685565  39.0967067  73.5165873  75.1442180
  39.7083129  73.2092596  76.4945388  40.8613859  84.1136151  67.6838857
  39.9540921  83.8825404  67.8830006  41.3584891  83.3173770  67.8712839
  43.7681938  92.8233658  70.6035543  43.0943637  93.1265354  71.2120501
  44.1547760  93.6262738  70.2541000  42.9840395  80.3198789  80.0933213
  42.0662956  80.5413736  79.9354901  43.4000538  80.3945099  79.2344920
  43.7675443  81.7190205  75.2235893  44.5147262  82.2311602  74.9143015
  44.0367032  81.3974257  76.0840287  42.0402093  84.2148745  72.2062847
  41.1313312  83.9307778  72.3035317  42.0697177  84.6347824  71.3466154
  32.6090263  81.9354260  76.1878050  32.4114663  81.3423620  75.4629116
  32.0536927  81.6306470  76.9053988  40.5886987  81.8277366  78.3072643
  40.6435597  80.8751202  78.2315119  39.7778189  81.9836805  78.7913941
  41.7378181  85.7557489  69.5450926  41.2997610  85.0393348  69.0856563
  42.4788621  85.9833604  68.9836017  38.5279347  80.4454426  76.0663022
  37.7147212  80.7448596  76.4728214  39.0238341  80.0510115  76.7837504
  40.6787925  90.4412183  77.9997286  40.6364103  90.6673029  77.0705818
  41.5950623  90.2075557  78.1483087  44.1253558  80.9096250  84.8977915
  44.4802946  81.1367723  85.7572381  44.7725690  81.2414627  84.2755171
  38.0193421  78.0172781  81.6824257  38.6592801  77.8761540  80.9847220
  37.1870952  77.7307295  81.3062858  38.7953725  87.3175212  77.7959249
  39.5894324  86.8225532  77.5941824  38.0845418  86.7893075  77.4326955
  35.1036489  81.4618293  73.8719002  34.1734077  81.4002749  74.0888964
  35.1993961  80.9394246  73.0755643  35.0222038  77.9873106  76.4597243
  35.2828855  78.9018440  76.3506404  35.8439210  77.5197549  76.6093856
  36.4946963  79.4010863  83.6296068  37.1670017  79.1928226  82.9808717
  35.6676750  79.2032949  83.1901300  42.3972535  76.0272804  85.6461729
  41.7500450  76.7262754  85.5526205  43.1673551  76.4608948  86.0137977
  45.8051333  86.2921657  88.7212282  45.6536840  86.0632208  87.8042366
  45.7956013  87.2492258  88.7343627  42.5736670  83.8653569  83.7058548
  43.5028730  84.0164729  83.5327516  42.1527700  83.9537590  82.8507195
  41.3725001  87.8904234  81.4757086  41.2336087  87.5223018  82.3483024
  40.5839598  88.4051873  81.3041044  41.9673153  92.9913330  72.8182623
  42.1424909  92.5201373  73.6328245  41.2805941  93.6179096  73.0463883
  36.8974460  82.6753466  84.3898505  36.7594258  81.9433705  84.9910044
  37.8079384  82.5862367  84.1082693  39.5256761  82.3873426  83.8782185
  40.2356380  81.7466618  83.8368803  39.4826069  82.6386321  84.8008365
  38.2385695  79.3738644  85.6977824  37.7023052  78.9229382  86.3499420
  37.6502404  79.5084552  84.9548288  36.5334239  96.1402693  79.5922483
  36.7730837  96.7721217  80.2701501  35.6903435  95.7890733  79.8787842
  37.6487954  78.8327295  68.2604288  36.7717420  78.7116096  67.8966534
  38.1245707  78.0413373  68.0083176  29.1690094  83.6204455  78.3545795
  29.8561134  83.3066185  77.7666810  29.0138223  84.5245819  78.0813046
  33.9724816  78.5094651  82.7830819  33.8883005  77.9020321  82.0481229
  33.1507523  79.0003670  82.7840315  41.0462100  91.9481815  81.9963987
  40.9732272  92.7536787  82.5083291  40.6039494  92.1473781  81.1712008
  40.8351880  91.1853585  75.5066808  40.0519402  91.7275266  75.6005033
  41.5344625  91.7027565  75.9061049  44.1448530  76.9948215  78.1501014
  44.6417230  76.2418177  77.8302084  43.3735512  77.0312532  77.5844223
  40.7283499  79.1365598  77.8772698  40.3581286  78.5836638  78.5653604
  41.2242591  78.5323731  77.3247698  38.5572698  89.5963093  84.9727716
  39.2582157  90.2299576  85.1257110  38.0867813  89.9377824  84.2123355
  46.5867525  73.9617808  80.2980373  45.6730605  74.1922035  80.4662579
  47.0160626  74.0456252  81.1494405  46.3573984  82.1507700  82.7980267
  45.7045434  82.3983608  82.1432719  46.7354363  81.3371839  82.4642744
  43.3181157  92.1867393  76.9008437  43.5003552  91.3689049  77.3636189
  44.1414143  92.4035086  76.4633327  43.6523323  91.1135579  74.1623485
  44.1811089  90.6028033  73.5493647  43.9151542  90.7978109  75.0269018
  42.4061557  82.8927511  89.2846304  41.7302194  82.7921641  89.9548679
  43.2289190  82.7366725  89.7482301  34.1540416  89.1299448  81.9058819
  34.7393852  88.3843136  82.0386723  33.9565254  89.4403405  82.7895483
  37.0079071  92.1650695  76.9221261  36.3389446  92.6496823  76.4385301
  36.8691941  92.4119916  77.8364640  28.7458070  81.7005048  80.6263262
  28.7842170  81.1668639  81.4200380  28.2398363  81.1740254  80.0074239
  41.1484339  94.1994439  83.5203920  41.7002647  94.3626060  84.2853005
  41.4890533  94.7898877  82.8483944  36.1248833  76.5469589  84.1225804
  36.1890159  77.4084420  83.7103202  36.0615953  75.9343590  83.3898163
  35.6001105  78.6192721  87.7698839  36.2273144  78.2369798  88.3836363
  34.7429024  78.4006923  88.1354531  45.9995214  89.0255696  89.3752574
  46.5435118  89.6385655  88.8807529  45.4182059  89.5835275  89.8919587
  32.3766648  80.4269150  73.7017193  32.6720089  79.5179829  73.6484247
  31.4754684  80.4056890  73.3798196  35.9060895  78.5025147  79.6844742
  35.1847481  79.1161115  79.5452215  36.6954151  79.0382912  79.6061388
  38.7087208  75.8379573  85.9585394  39.2321610  76.0841870  86.7211703
  38.4899542  76.6699608  85.5388531  34.1054490  78.1083248  73.8256519
  33.7767196  77.2280627  73.6431625  34.4593860  78.0530917  74.7132908
  37.2196313  78.3956218  74.1931996  37.5592385  78.9242139  73.4710605
  37.6668433  78.7336624  74.9690563  39.9139753  76.7793268  83.6435064
  39.5736574  75.9801082  84.0455744  39.2078760  77.0794979  83.0711898
  40.5656225  73.8642581  82.0962387  41.3882295  73.3903059  81.9741278
  40.8094289  74.6433065  82.5961074  39.2064460  76.8930839  72.3925289
  39.9272822  77.2712092  71.8889006  38.5829764  77.6119716  72.4960267
  43.3495583  77.5975988  73.3283621  43.5659197  78.4800626  73.0272450
  42.8689650  77.2062202  72.5989263  38.0894804  80.5561702  79.9054366
  37.9439385  80.8702005  80.7978647  37.6120008  81.1746602  79.3525265
  39.9491187  77.5464250  79.9535256  39.9352756  76.6505343  79.6167553
  40.6663615  77.5534913  80.5873542  41.8017318  77.9801590  81.9988383
  41.5435095  78.9018660  81.9972713  41.2702358  77.5832024  82.6888847
  32.5640466  83.0967046  82.8442027  32.0193934  83.8726854  82.9762301
  33.4419816  83.4437850  82.6861149  39.3528083  76.4278630  75.2222826
  39.4743994  75.4995276  75.4213713  39.0630125  76.4417316  74.3101141
  42.2219273  74.1133540  78.3589545  42.2440970  74.1772873  77.4041525
  42.6387332  73.2738049  78.5530052  33.3506488  82.2236942  85.7372184
  32.6088224  82.3719578  86.3236814  33.0299232  82.4845208  84.8738933
  41.2950151  91.7652920  85.5352574  41.6037277  91.5202067  86.4075274
  42.0925633  91.9699559  85.0471444  41.3170763  93.9190830  77.7657951
  40.8775753  93.4267209  78.4590807  42.0678880  93.3763798  77.5250026
  33.7963102  90.1102371  77.7682579  34.6221122  89.8106143  77.3881222
  33.4457154  89.3409993  78.2172367  38.7644635  89.4628839  79.8380252
  38.1424644  88.7999544  79.5382480  39.4349502  89.4889971  79.1553900
  31.9971707  88.0288697  78.7271512  31.1603615  87.6010872  78.5455513
  31.9695352  88.2221141  79.6642303  38.8369162  77.9410627  89.4312758
  38.8857318  78.8172750  89.0490528  39.3791677  77.3988020  88.8584401
  49.3224008  88.4851750  88.7113895  48.5319552  88.4675889  88.1718395
  49.0857363  89.0240044  89.4662932  49.4421883  85.3344217  86.0246624
  49.4919888  85.1694224  86.9662147  49.3335806  84.4671476  85.6344505
  38.3258142  88.0132762  73.3138713  38.4746262  88.6968227  72.6605386
  39.1324585  87.9937853  73.8288168  46.7325646  81.3175145  87.3405931
  47.6335508  81.1781610  87.0489928  46.8073620  81.4829600  88.2804108
  41.0668451  78.6942000  86.1859117  40.1971760  78.9875566  85.9141705
  41.3027931  79.2782445  86.9066381  50.9440080  87.7541158  86.2688645
  50.6524888  88.1171139  87.1052106  50.3312211  87.0408167  86.0901977
  49.1927268  82.8773773  84.7368703  49.6681390  83.0701419  83.9287555
  48.2692834  82.9332959  84.4912087  36.0810775  84.0397940  74.3199782
  35.8356817  83.1360270  74.5179992  36.2506689  84.0415091  73.3779260
  43.7707485  74.9121616  83.7024537  44.2889429  75.6482643  83.3771026
  43.4162617  75.2185610  84.5371296  35.3506422  79.7726298  71.8185943
  34.6575667  79.8470653  71.1625979  35.1058174  79.0086641  72.3407460
  44.0220079  71.3321899  79.2225434  44.3021833  70.6645088  79.8485860
  44.8070686  71.5250995  78.7100098  41.8253547  90.5080893  70.7850460
  41.2527514  91.1271080  70.3320932  42.3986341  91.0580255  71.3190382
  47.8928937  79.7539533  82.9697009  48.8446360  79.8537631  82.9909233
  47.7232388  78.9617802  83.4795093  45.9143317  76.8395116  83.1556410
  45.3193249  77.1200129  82.4602899  45.6293013  77.3289017  83.9273151
  45.0450807  90.7918043  71.9159042  45.9781480  90.7263605  72.1191918
  44.9574020  91.6274310  71.4573575  50.3717015  82.9745653  82.0839309
  50.3393335  82.0361653  82.2698992  50.9817639  83.0529689  81.3505134
  42.2100346  81.8441706  68.1266513  43.1559451  81.7147914  68.1954931
  41.8314591  81.1056368  68.6035941  50.5211503  79.7656696  82.1297592
  50.0050552  78.9815153  81.9427521  51.4051452  79.4375413  82.2944111
  42.0939038  85.8959452  89.5867170  43.0142048  86.0738051  89.7807216
  42.0588621  84.9515497  89.4346869  40.3943263  79.7691682  68.0621398
  39.4874718  79.4724795  68.1384112  40.6719244  79.4721500  67.1955684
  31.3121203  81.0898045  78.5120444  30.9923988  80.2363354  78.2194818
  30.7654632  81.3046624  79.2678412  35.0901111  83.8060486  82.2289951
  35.3087121  84.7377594  82.2477985  35.5026885  83.4468461  83.0144755
  42.0105329  74.3128572  74.2165639  41.2006057  73.9675657  74.5920885
  42.6989746  74.0036116  74.8053251  43.9395877  73.3906619  75.8389936
  44.4926916  73.8102072  76.4979959  44.1765963  72.4642367  75.8812892
  39.9628976  79.3793692  91.6192700  39.8625703  80.3288049  91.5504791
  39.7450518  79.0511931  90.7468770  39.1642048  76.6278617  68.2033377
  40.0261212  76.9533516  68.4629194  39.3492392  75.8410113  67.6906443
  31.1809463  84.7100957  80.4813566  30.4872935  84.2954910  79.9683520
  31.9282454  84.7521493  79.8846985  39.8260246  82.8090831  90.4357761
  39.3427328  83.6091191  90.6421650  39.9121185  82.8198776  89.4825205
  33.0946206  84.6419211  78.3579581  33.0716894  84.7406898  77.4061464
  33.4046842  85.4884362  78.6796747  35.7533584  86.6995366  82.4726195
  36.7076837  86.6679308  82.4056127  35.5546107  86.2385990  83.2876421
  36.3432966  85.2696482  85.0396993  37.1625855  85.7640560  85.0631830
  36.6169774  84.3528450  85.0114560  46.0999562  77.6607234  74.4024948
  45.2125417  77.9456885  74.1845143  46.5153551  77.5000998  73.5552225
  34.1083813  92.2414985  79.4896393  33.9738281  91.4815386  78.9234391
  33.6915875  92.9655885  79.0225182  45.2442776  87.4251909  68.4972968
  45.9478626  87.6301911  69.1130624  44.5205424  87.9928671  68.7622052
  46.0740586  83.1761770  74.6175239  46.0175787  83.6330321  73.7782871
  46.6268928  82.4152455  74.4398081  37.2652938  93.1384302  79.7014836
  37.1485323  94.0829735  79.5993526  36.4445385  92.8357864  80.0900635
  31.5967880  79.6034616  85.7389190  32.2426744  79.0933570  86.2276415
  31.3885031  80.3403297  86.3132615  44.1221272  86.6715463  91.2381330
  44.9912432  86.8456115  90.8767965  43.6428024  87.4909880  91.1157060
  40.1171491  73.8674660  71.4913086  40.1050160  74.8116500  71.6481357
  41.0094913  73.6844806  71.1972547  38.2907453  93.7912564  82.9170764
  39.1934699  93.8236174  83.2337259  38.0644823  92.8613015  82.9317100
  40.0461055  92.5443551  79.5780843  39.0956686  92.5445412  79.4645215
  40.3493541  91.7976285  79.0616877  43.9323610  70.4617437  75.7459023
  43.1656006  69.9075924  75.8915705  44.3434315  70.5339306  76.6073175
  35.9365371  76.7502233  89.8364204  36.7996833  76.3939038  90.0467529
  35.3630782  76.4116128  90.5239608  55.7813748  98.3804089  80.6426605
  56.4192158  98.2610836  79.9389945  55.6634591  99.3284933  80.7014557
  52.5903454  98.3331517  80.5788130  52.2521966  98.2172582  79.6908665
  53.4593223  97.9322682  80.5589136  48.4490270 100.1866994  76.5685021
  47.8855135 100.0956931  75.8001309  48.3342665  99.3666898  77.0487513
  53.0723237  99.4866369  86.5374335  53.0611878  99.0919167  85.6654839
  53.2343877  98.7532442  87.1308107  45.9954702 101.6818185  79.4069241
  46.7875994 101.3409010  78.9915541  46.2351352 101.7913160  80.3271395
  54.0289829 103.8537961  71.8799486  53.3777809 104.4392042  71.4933499
  54.8234192 104.3844156  71.9394523  47.9545456 100.9427098  72.2786620
  48.7276332 100.3956086  72.1399496  48.3070855 101.8071348  72.4901081
  49.7930499 102.2703481  85.4853519  49.5020364 103.1749112  85.3700186
  50.4287483 102.3120008  86.1997589  50.7186705  99.6480329  82.0754879
  51.3150278  99.4236352  81.3611842  50.7761677  98.9065075  82.6780327
  50.2911734  97.1019765  69.9105070  50.5437254  96.5801286  69.1488533
  49.3536293  96.9385910  70.0131754  55.5065094 101.5428393  72.4168470
  54.8710927 101.6163020  73.1289375  55.1762500 102.1321992  71.7387549
  60.7363444  96.0430776  78.6212792  61.4688616  95.4729993  78.8550621
  59.9802799  95.6552377  79.0619297  50.0108023  99.0047871  72.1129445
  49.8944281  98.3292774  72.7810529  50.1210282  98.5180244  71.2961598
  52.3539563  98.4658018  75.8176134  51.9897771  97.9388639  76.5289056
  53.2106679  98.0756487  75.6442620  58.2588864  89.7552350  83.0807400
  57.9272189  90.6247761  82.8568615  57.6634477  89.4388634  83.7601431
  51.9945050  93.4947917  70.8137483  52.1619453  94.3628154  71.1807954
  51.8042219  93.6575199  69.8898772  54.7520384 101.9564896  82.4803313
  54.4521107 102.8589935  82.3719120  54.4071443 101.6897079  83.3324466
  48.2032865  98.4078693  78.5140017  47.2783362  98.2754907  78.7217709
  48.4517278  99.1872912  79.0109960  58.1517527  94.4747436  80.1600750
  57.2434405  94.4062845  79.8659511  58.1005123  94.9519381  80.9882576
  51.9734271  95.9505575  71.7984150  51.8533896  96.3962626  72.6369630
  51.2786860  96.2990893  71.2397688  45.5641676  98.0511967  79.3483807
  45.6934057  98.3046446  80.2623218  44.8839127  98.6439675  79.0288462
  52.2258393  95.8937082  88.1035648  51.4491727  96.4531002  88.0938512
  52.8648956  96.3793865  88.6250518  60.0179174  92.6763875  81.9378624
  59.3753554  92.9696408  81.2918419  59.5134102  92.5616795  82.7431821
  57.6719337  96.4227048  72.6264484  58.5837194  96.6554435  72.4512181
  57.1628985  97.0064092  72.0639562  50.4804765  98.7022535  87.6653615
  51.2219450  99.2407579  87.3888438  49.7741751  99.3288824  87.8225166
  55.9560105 100.8451676  86.2625776  56.3643461 100.4034086  85.5180408
  55.2337367 100.2704303  86.5159969  56.2788920 101.4052866  80.0178065
  55.6497782 101.5698581  79.3154133  55.8914582 101.8194476  80.7889029
  60.1578152 102.3407304  77.3722429  59.4729190 102.7206206  76.8219462
  60.2422001 102.9502631  78.1054377  55.4590620  93.4428651  85.2940507
  55.2151552  94.1970712  84.7574782  55.7350551  93.8213999  86.1287754
  57.4129083  99.9867263  83.9717772  57.6245978 100.6299023  83.2952153
  57.3658832  99.1529580  83.5039702  51.8316882 101.1427275  77.2828150
  52.2955227 101.4214978  76.4932773  51.5673680 100.2410719  77.1001241
  48.7240963 100.6898756  80.2207913  49.2942320 101.1186024  79.5825398
  49.3149075 100.4081341  80.9192099  50.7685768  97.2650427  74.0917715
  51.4709811  97.7171471  74.5591642  50.4366396  96.6234246  74.7197608
  49.2166129  95.8562184  88.4668925  48.5864790  96.5378464  88.7004321
  49.1102217  95.7445265  87.5222063  44.5111102  95.5233980  79.3934849
  43.7210156  95.7791508  78.9174959  45.0022349  96.3382317  79.4986889
  58.5274911 102.8639219  82.1440130  59.3492355 102.4619406  81.8622811
  58.5237314 102.7607453  83.0956245  46.4625847  95.8878559  76.3518326
  45.6657010  95.9997253  76.8701821  46.2351439  96.2265211  75.4859216
  52.2931515 102.4123262  84.3000840  52.3575947 102.8743669  85.1359012
  51.5842439 101.7820627  84.4283150  42.7948805  95.7764470  81.8249840
  43.0456843  96.6611480  82.0907416  43.3308353  95.5969072  81.0524931
  66.6180904  99.2077967  78.4925101  65.8644613  98.6385365  78.3369106
  66.7528445  99.1740632  79.4395736  52.0079532 104.0791370  74.1679820
  51.8725207 104.9242905  74.5964668  52.5489345 104.2810647  73.4045754
  48.4946872  90.1582949  90.8294176  48.1013818  89.6049148  91.5041820
  49.3113012  90.4693528  91.2200693  45.4608930 101.5966808  74.7407746
  45.9733450 102.3910058  74.8913310  46.1131643 100.8993098  74.6741347
  47.2703814 104.7132564  76.8230499  47.4470443 105.6350529  76.6351483
  48.0660648 104.3990983  77.2524879  51.4114833  91.5740829  88.4214432
  52.1524546  92.1747982  88.3418895  51.6432756  90.8318466  87.8632475
  46.5556171  96.7597196  86.6992662  46.4409686  95.8582453  86.9999761
  45.7000689  97.0060893  86.3477478  52.1902301 102.4961865  87.1685072
  52.7230638 101.7350154  86.9384380  51.6616382 102.2035517  87.9109227
  43.4257846  99.9255462  75.5167316  44.2633068 100.3352470  75.3001024
  43.6036114  98.9854904  75.4867510  55.3222279  97.5930543  71.2051149
  54.8068902  98.3635147  71.4439536  55.0499587  96.9195679  71.8284210
  60.2956553 100.3462897  73.1404323  59.5185995 100.0074057  72.6959485
  60.9748034 100.3515520  72.4659288  55.1108582  95.4657635  73.0310930
  54.8058717  95.7803784  73.8821073  56.0639024  95.5439055  73.0738263
  53.5555014 101.6247858  74.6803884  53.0276375 100.8900618  74.3677122
  53.0542516 102.4022534  74.4343853  58.5347860  99.8196878  79.7970931
  57.8771534 100.5096140  79.8851059  59.3388259 100.2093310  80.1404917
  57.3453318  98.1741251  77.8474872  57.8585200  98.8071243  78.3496582
  57.9954542  97.5742447  77.4818232  48.6143328  94.3171985  71.0606381
  47.7780641  94.6546672  71.3815656  48.4748098  94.1820965  70.1233518
  51.7007614  99.4428068  67.6838857  50.7934676  99.2117322  67.8830006
  52.1978646  98.6465687  67.8712839  54.6069197  97.0482122  75.2235893
  55.3541016  97.5603520  74.9143015  54.8760787  96.7266175  76.0840287
  52.8795847  99.5440663  72.2062847  51.9707066  99.2599696  72.3035317
  52.9090931  99.9639742  71.3466154  58.1115115 103.1547253  75.9754015
  57.6577442 102.3138162  76.0319205  57.4809081 103.7908651  76.3128795
  56.5548054 104.9923749  76.9103833  56.8471028 105.5528806  76.1916199
  57.0646674 105.2852310  77.6656992  43.4484018  97.2646177  76.1878050
  43.2508417  96.6715538  75.4629116  42.8930682  96.9598387  76.9053988
  52.5771935 101.0849407  69.5450926  52.1391365 100.3685266  69.0856563
  53.3182376 101.3125522  68.9836017  51.5181679 105.7704100  77.9997286
  51.4757858 105.9964947  77.0705818  52.4344378 105.5367475  78.1483087
  54.9647313  96.2388168  84.8977915  55.3196701  96.4659641  85.7572381
  55.6119444  96.5706545  84.2755171  60.6945050  99.3606604  75.6027244
  60.5562948  99.5508200  74.6748434  60.3381269 100.1225987  76.0595296
  60.7214429 101.4283131  80.6138516  61.1550936 101.3358420  81.4621570
  61.4346010 101.4040631  79.9758532  49.6347480 102.6467129  77.7959249
  50.4288078 102.1517450  77.5941824  48.9239172 102.1184993  77.4326955
  54.4542324 105.0285225  82.1471617  54.5079347 105.5976161  82.9149332
  53.5857106 105.1987110  81.7825654  45.9430243  96.7910211  73.8719002
  45.0127831  96.7294667  74.0888964  46.0387715  96.2686164  73.0755643
  47.3340718  94.7302781  83.6296068  48.0063771  94.5220143  82.9808717
  46.5070504  94.5324867  83.1901300  61.5829979 101.4706831  83.1471401
  61.7765869 102.3752642  83.3930676  61.4830597 101.0114251  83.9809986
  53.2366290  91.3564722  85.6461729  52.5894205  92.0554672  85.5526205
  54.0067305  91.7900866  86.0137977  53.4130424  99.1945487  83.7058548
  54.3422484  99.3456647  83.5327516  52.9921454  99.2829508  82.8507195
  52.2118756 103.2196151  81.4757086  52.0729842 102.8514936  82.3483024
  51.4233352 103.7343791  81.3041044  53.7623971 102.5977754  78.8645924
  53.4273804 102.5578524  79.7603574  53.2627917 101.9322470  78.3916334
  47.7368215  98.0045384  84.3898505  47.5988013  97.2725623  84.9910044
  48.6473138  97.9154284  84.1082693  56.6983163  99.9433788  69.1382983
  56.0812333  99.2180617  69.0416036  56.2299651 100.7043149  68.7950058
  50.3650516  97.7165343  83.8782185  51.0750134  97.0758536  83.8368803
  50.3219824  97.9678238  84.8008365  49.0779450  94.7030561  85.6977824
  48.5416807  94.2521300  86.3499420  48.4896158  94.8376470  84.9548288
  48.4881709  94.1619213  68.2604288  47.6111175  94.0408013  67.8966534
  48.9639462  93.3705291  68.0083176  58.3554702 102.6172281  85.0302744
  57.4681480 102.2798202  85.1529142  58.9253253 101.8855312  85.2671509
  40.0083849  98.9496372  78.3545795  40.6954889  98.6358102  77.7666810
  39.8531977  99.8537737  78.0813046  44.8118571  93.8386569  82.7830819
  44.7276760  93.2312239  82.0481229  43.9901277  94.3295587  82.7840315
  51.6745635 106.5145503  75.5066808  50.8913156 107.0567183  75.6005033
  52.3738380 107.0319483  75.9061049  62.8372042  98.0280498  79.7919305
  62.8261918  98.9105213  79.4213238  61.9689422  97.6752049  79.5973842
  56.0672065 101.0811820  75.7239437  55.1328344 101.2013282  75.5544141
  56.2448734 100.1784287  75.4599447  59.4544617  96.9229139  76.2589471
  59.9205069  97.7557131  76.1849774  59.9052117  96.4574121  76.9634730
  49.3966452 104.9255011  84.9727716  50.0975912 105.5591494  85.1257110
  48.9261567 105.2669742  84.2123355  57.5220848 103.2672960  73.2575623
  57.7980692 103.1529555  74.1669497  56.6525347 102.8690445  73.2187796
  57.1967738  97.4799618  82.7980267  56.5439188  97.7275525  82.1432719
  57.5748118  96.6663756  82.4642744  54.1574912 107.5159311  76.9008437
  54.3397306 106.6980967  77.3636189  54.9807898 107.7327003  76.4633327
  54.4917077 106.4427496  74.1623485  55.0204844 105.9319951  73.5493647
  54.7545297 106.1270027  75.0269018  53.2455311  98.2219429  89.2846304
  52.5695948  98.1213558  89.9548679  54.0682945  98.0658643  89.7482301
  44.9934170 104.4591366  81.9058819  45.5787607 103.7135053  82.0386723
  44.7959009 104.7695322  82.7895483  39.5851825  97.0296966  80.6263262
  39.6235924  96.4960556  81.4200380  39.0792118  96.5032171  80.0074239
  46.4394860  93.9484639  87.7698839  47.0666898  93.5661716  88.3836363
  45.5822779  93.7298841  88.1354531  43.2160402  95.7561068  73.7017193
  43.5113843  94.8471746  73.6484247  42.3148438  95.7348807  73.3798196
  55.1246481 107.4768332  80.5067602  54.9997621 106.6758072  79.9978547
  55.7825572 107.9714525  80.0181572  57.1881390 105.2777352  82.1347152
  56.2411725 105.1582703  82.0625479  57.5364163 104.3899850  82.2173413
  49.5480963  91.1671491  85.9585394  50.0715365  91.4133788  86.7211703
  49.3293296  91.9991526  85.5388531  44.9448244  93.4375166  73.8256519
  44.6160950  92.5572545  73.6431625  45.2987615  93.3822834  74.7132908
  54.1927823 105.0730068  78.3351504  54.0452785 104.1446776  78.5159074
  55.0181316 105.0950159  77.8508579  57.7961945 105.8958627  79.4216377
  58.7208492 105.6901488  79.2840828  57.6277248 105.6475028  80.3305718
  57.5857261 106.4144295  74.7778468  57.7594138 105.8490717  74.0252321
  58.0786152 107.2145189  74.5957958  43.4034221  98.4258964  82.8442027
  42.8587689  99.2018772  82.9762301  44.2813571  98.7729768  82.6861149
  63.4396652  99.1780717  76.3968768  63.8827798  98.4288043  75.9987891
  62.5623162  99.1690854  76.0142500  58.5732433 105.7311059  71.8775367
  59.2683338 106.3517752  72.0962681  58.9155584 104.8806410  72.1527744
  44.1900243  97.5528860  85.7372184  43.4481979  97.7011495  86.3236814
  43.8692987  97.8137125  84.8738933  60.4723857 103.1810764  73.4062697
  60.9975181 103.5198037  72.6812017  60.3846209 102.2457780  73.2225832
  49.6038389 104.7920757  79.8380252  48.9818399 104.1291462  79.5382480
  50.2743256 104.8181889  79.1553900  42.8365461 103.3580615  78.7271512
  41.9997370 102.9302789  78.5455513  42.8089107 103.5513058  79.6642303
  49.6762917  93.2702545  89.4312758  49.7251072  94.1464668  89.0490528
  50.2185431  92.7279938  88.8584401  49.1651896 103.3424680  73.3138713
  49.3140017 104.0260145  72.6605386  49.9718340 103.3229770  73.8288168
  57.5719400  96.6467062  87.3405931  58.4729263  96.5073527  87.0489928
  57.6467375  96.8121517  88.2804108  51.9062205  94.0233917  86.1859117
  51.0365515  94.3167483  85.9141705  52.1421686  94.6074362  86.9066381
  62.9829517 100.6485956  78.7891216  63.8176408 101.0875760  78.9528776
  63.1188646 100.1724609  77.9699461  60.0321023  98.2065691  84.7368703
  60.5075144  98.3993337  83.9287555  59.1086588  98.2624876  84.4912087
  46.9204529  99.3689858  74.3199782  46.6750571  98.4652188  74.5179992
  47.0900444  99.3707008  73.3779260  46.1900177  95.1018215  71.8185943
  45.4969422  95.1762570  71.1625979  45.9451929  94.3378559  72.3407460
  52.6647302 105.8372811  70.7850460  52.0921269 106.4562998  70.3320932
  53.2380096 106.3872172  71.3190382  58.7322692  95.0831451  82.9697009
  59.6840115  95.1829548  82.9909233  58.5626142  94.2909719  83.4795093
  55.8844562 106.1209961  71.9159042  56.8175235 106.0555522  72.1191918
  55.7967774 106.9566228  71.4573575  58.5132578 105.4375831  68.8762990
  58.4346210 105.1035695  69.7698748  59.3342245 105.9297599  68.8754462
  61.2110769  98.3037570  82.0839309  61.1787090  97.3653571  82.2698992
  61.8211393  98.3821607  81.3505134  53.0494100  97.1733623  68.1266513
  53.9953205  97.0439831  68.1954931  52.6708345  96.4348285  68.6035941
  61.3605258  95.0948614  82.1297592  60.8444307  94.3107070  81.9427521
  62.2445206  94.7667330  82.2944111  67.0287319  99.3653577  81.2245345
  67.7590708  99.1038865  81.7853049  66.4194265  98.6282299  81.2647413
  65.1102616  97.5061440  81.8219797  64.3835780  97.3717405  81.2136288
  64.6949903  97.8138268  82.6276515  51.2337018  95.0983600  68.0621398
  50.3268473  94.8016712  68.1384112  51.5112999  94.8013418  67.1955684
  42.1514958  96.4189963  78.5120444  41.8317742  95.5655271  78.2194818
  41.6048386  96.6338541  79.2678412  45.9294865  99.1352404  82.2289951
  46.1480875 100.0669512  82.2477985  46.3420639  98.7760379  83.0144755
  50.8022731  94.7085610  91.6192700  50.7019458  95.6579967  91.5504791
  50.5844273  94.3803849  90.7468770  42.0203218 100.0392875  80.4813566
  41.3266689  99.6246827  79.9683520  42.7676209 100.0813411  79.8846985
  50.6654001  98.1382749  90.4357761  50.1821083  98.9383109  90.6421650
  50.7514940  98.1490694  89.4825205  43.9339960  99.9711128  78.3579581
  43.9110649 100.0698816  77.4061464  44.2440597 100.8176279  78.6796747
  46.5927338 102.0287283  82.4726195  47.5470592 101.9971226  82.4056127
  46.3939862 101.5677907  83.2876421  47.1826720 100.5988399  85.0396993
  48.0019609 101.0932478  85.0631830  47.4563528  99.6820368  85.0114560
  62.7280411  93.7273292  79.1753228  63.3224902  93.4869028  78.4646536
  62.8006995  93.0080423  79.8026765  56.0836530 102.7543826  68.4972968
  56.7872380 102.9593829  69.1130624  55.3599179 103.3220588  68.7622052
  56.9134340  98.5053688  74.6175239  56.8569542  98.9622239  73.7782871
  57.4662683  97.7444372  74.4398081  60.7239146  94.2943420  75.4425358
  60.4676081  93.8940055  76.2733566  60.0992014  95.0087214  75.3175497
  65.0351484  97.0339493  77.9496649  64.4751042  97.1032682  78.7228211
  64.4294987  96.8580477  77.2296146  57.9923227 103.1926356  70.5471428
  58.8268831 102.7607554  70.3648903  57.8307570 103.0208369  71.4748323
  57.6469120  99.6958469  71.9127768  57.5917923  99.5302740  70.9716212
  57.0215175 100.4034502  72.0689957  42.4361635  94.9326533  85.7389190
  43.0820498  94.4225487  86.2276415  42.2278786  95.6695215  86.3132615
  46.7759126  92.0794150  89.8364204  47.6390587  91.7230955  90.0467529
  46.2024536  91.7408045  90.5239608  62.8338805 108.8239835  70.8137483
  63.0013207 109.6920071  71.1807954  62.6435974 108.9867117  69.8898772
  68.5113092 111.7518966  72.6264484  69.4230948 111.9846352  72.4512181
  68.0022739 112.3356010  72.0639562  63.7463144 107.7672161  76.2636387
  62.8904740 107.3779011  76.0842026  64.1590096 107.8464122  75.4036173
  61.5205177 105.3857234  79.6694129  62.3858173 105.1900043  79.3100018
  61.5882686 105.1567586  80.5963486  65.9502336 110.7949552  73.0310930
  65.6452472 111.1095702  73.8821073  66.9032778 110.8730972  73.0738263
  59.1267496 107.6159442  77.0410496  59.7011248 107.3934623  76.3083689
  59.7138478 107.6848136  77.7939097  61.4290163 104.4900691  75.7685565
  60.7754576 104.1749708  75.1442180  61.3870638 103.8676431  76.4945388
  67.8941789 109.4131156  77.2054682  67.1564545 108.9008543  77.5364925
  68.1468562 108.9731538  76.3937959  67.9953416 102.1907408  77.7996452
  68.3012293 101.3304772  77.5122367  68.7206021 102.7825029  77.5995446
  59.3275463 109.4911130  68.2604288  58.4504929 109.3699931  67.8966534
  59.8033216 108.6997209  68.0083176  65.8236039 107.6532050  78.1501014
  66.3204739 106.9002013  77.8302084  65.0523021 107.6896367  77.5844223
  62.4071008 109.7949433  77.8772698  62.0368795 109.2420474  78.5653604
  62.9030100 109.1907567  77.3247698  55.7841998 108.7667083  73.8256519
  55.4554705 107.8864462  73.6431625  56.1381369 108.7114752  74.7132908
  58.8983822 109.0540053  74.1931996  59.2379894 109.5825974  73.4710605
  59.3455942 109.3920459  74.9690563  60.8851969 107.5514675  72.3925289
  61.6060331 107.9295927  71.8889006  60.2617273 108.2703551  72.4960267
  65.0283092 108.2559824  73.3283621  65.2446706 109.1384462  73.0272450
  64.5477159 107.8646037  72.5989263  61.6278696 108.2048085  79.9535256
  61.6140265 107.3089178  79.6167553  62.3451124 108.2118749  80.5873542
  61.0315592 107.0862465  75.2222826  61.1531503 106.1579111  75.4213713
  60.7417634 107.1001151  74.3101141  63.9006782 104.7717376  78.3589545
  63.9228479 104.8356709  77.4041525  64.3174841 103.9321884  78.5530052
  65.7007588 101.9905734  79.2225434  65.9809342 101.3228923  79.8485860
  66.4858195 102.1834830  78.7100098  69.8609739 104.1681547  78.0893404
  69.6634561 103.8596635  78.9736736  70.4709445 104.8943186  78.2191334
  62.0730772 110.4275517  68.0621398  61.1662227 110.1308630  68.1384112
  62.3506753 110.1305336  67.1955684  63.6892838 104.9712407  74.2165639
  62.8793566 104.6259492  74.5920885  64.3777255 104.6619951  74.8053251
  65.6183386 104.0490454  75.8389936  66.1714425 104.4685907  76.4979959
  65.8553472 103.1226202  75.8812892  60.8429557 107.2862453  68.2033377
  61.7048721 107.6117351  68.4629194  61.0279901 106.4993949  67.6906443
  68.9962193 106.1590979  75.3468600  68.4160862 106.8175783  74.9646653
  68.7298126 105.3368324  74.9356018  67.4465759 105.5596037  77.5489920
  67.9465538 105.6712571  76.7404239  68.0901367 105.2557090  78.1890729
  67.7787071 108.3191069  74.4024948  66.8912926 108.6040720  74.1845143
  68.1941060 108.1584833  73.5552225  71.5632901 109.6235337  75.4425358
  71.3069835 109.2231973  76.2733566  70.9385769 110.3379131  75.3175497
  61.7959000 104.5258496  71.4913086  61.7837669 105.4700336  71.6481357
  62.6882421 104.3428641  71.1972547  65.6111119 101.1201272  75.7459023
  64.8443515 100.5659759  75.8915705  66.0221824 101.1923141  76.6073175
  12.4238731  14.0698541  67.3671912  13.0617141  13.9505288  66.6635252
  12.3059574  15.0179385  67.4259864   9.2328438  14.0225969  67.3033436
   8.8946949  13.9067034  66.4153971  10.1018206  13.6217134  67.2834443
   5.0915253  15.8761446  63.2930327   4.5280119  15.7851382  62.5246615
   4.9767648  15.0561350  63.7732820   9.7148221  15.1760821  73.2619642
   9.7036861  14.7813619  72.3900146   9.8768860  14.4426893  73.8553413
   2.6379685  17.3712637  66.1314548   3.4300977  17.0303462  65.7160847
   2.8776335  17.4807612  67.0516701  10.6714812  19.5432413  58.6044792
  10.0202792  20.1286494  58.2178806  11.4659175  20.0738608  58.6639830
   4.5970439  16.6321550  59.0031927   5.3701315  16.0850537  58.8644802
   4.9495838  17.4965800  59.2146388   6.4355482  17.9597933  72.2098826
   6.1445348  18.8643563  72.0945492   7.0712466  18.0014460  72.9242896
   7.3611689  15.3374781  68.8000186   7.9575261  15.1130804  68.0857149
   7.4186660  14.5959527  69.4025634   6.9336717  12.7914216  56.6350377
   7.1862238  12.2695738  55.8733840   5.9961276  12.6280362  56.7377060
  11.9780000  11.7949995  64.4425120  12.7643089  11.3769418  64.0915537
  12.2418704  12.6996087  64.6106768  12.1490077  17.2322845  59.1413777
  11.5135910  17.3057472  59.8534681  11.8187484  17.8216444  58.4632856
  17.3788427  11.7325228  65.3458098  18.1113599  11.1624445  65.5795928
  16.6227783  11.3446828  65.7864604   6.6533006  14.6942322  58.8374752
   6.5369264  14.0187226  59.5055836   6.7635266  14.2074696  58.0206905
   8.9964547  14.1552470  62.5421441   8.6322754  13.6283091  63.2534362
   9.8531663  13.7650939  62.3687926  11.3945367  17.6459348  69.2048620
  11.0946090  18.5484387  69.0964427  11.0496426  17.3791531  70.0569773
   4.8457848  14.0973145  65.2385324   3.9208345  13.9649359  65.4463016
   5.0942262  14.8767364  65.7355267  14.7942511  10.1641888  66.8846057
  13.8859388  10.0957297  66.5904818  14.7430106  10.6413833  67.7127882
   8.6159255  11.6400027  58.5229456   8.4958880  12.0857078  59.3614936
   7.9211843  11.9885344  57.9642994   6.3766147  24.4103668  62.1719587
   6.2990176  25.3611494  62.2508068   5.7727790  24.0649541  62.8294514
   8.8683376  11.5831534  74.8280954   8.0916711  12.1425454  74.8183819
   9.5073940  12.0688317  75.3495824  16.6604157   8.3658327  68.6623931
  16.0178537   8.6590860  68.0163726  16.1559086   8.2511247  69.4677128
  14.3144321  12.1121500  59.3509790  15.2262177  12.3448887  59.1757488
  13.8053968  12.6958544  58.7884869   7.1229749  14.3916987  74.3898921
   7.8644433  14.9302031  74.1133745   6.4166734  15.0183276  74.5470473
  12.5985088  16.5346128  72.9871083  13.0068444  16.0928538  72.2425715
  11.8762350  15.9598755  73.2405276   8.9516158  11.4718735  70.3604640
   9.7977354  11.8958148  70.5039289   8.8914796  10.8152359  71.0543203
  12.9213903  17.0947318  66.7423372  12.2922765  17.2593033  66.0399440
  12.5339565  17.5088928  67.5134336  16.8003135  18.0301756  64.0967735
  16.1154173  18.4100658  63.5464769  16.8846984  18.6397083  64.8299683
  12.1015604   9.1323103  72.0185813  11.8576536   9.8865163  71.4820089
  12.3775534   9.5108450  72.8533060  14.0554067  15.6761715  70.6963079
  14.2670962  16.3193475  70.0197460  14.0083815  14.8424032  70.2285009
  11.6580296   8.2879536  67.5999651  10.7964775   8.5860789  67.8916389
  11.6842730   8.5049935  66.6680684   8.4741865  16.8321726  64.0073457
   8.9380210  17.1109429  63.2178079   8.2098663  15.9305171  63.8246547
   5.3665946  16.3793208  66.9453220   5.9367303  16.8080476  66.3070705
   5.9574058  16.0975793  67.6437406   7.4110751  12.9544879  60.8163022
   8.1134794  13.4065922  61.2836948   7.0791379  12.3128698  61.4442915
  15.1699895  18.5533671  68.8685436  15.9917338  18.1513858  68.5868118
  15.1662297  18.4501905  69.8201552   8.9356498  18.1017714  71.0246147
   9.0000930  18.5638121  71.8604319   8.2267422  17.4715079  71.1528457
  23.2605888  14.8972419  65.2170408  22.5069596  14.3279817  65.0614412
  23.3953429  14.8635084  66.1641042   8.6504516  19.7685821  60.8925127
   8.5150190  20.6137357  61.3209975   9.1914328  19.9705099  60.1291061
   2.1033913  17.2861259  61.4653052   2.6158434  18.0804510  61.6158617
   2.7556626  16.5887550  61.3986654   3.9128798  20.4027016  63.5475805
   4.0895426  21.3244980  63.3596789   4.7085631  20.0885435  63.9770185
  10.2772992  20.3909388  75.0225469   9.8336846  19.6045767  74.7046374
  10.9390206  20.5788538  74.3569360   5.0360113  21.9205190  69.5486148
   5.5867538  21.7922253  68.7763142   4.1971589  22.2200079  69.1981040
  12.3754230  20.6712188  73.0506870  12.3572705  21.4921069  72.5587140
  13.2974150  20.5466263  73.2757012   8.8327284  18.1856317  73.8930379
   9.3655621  17.4244606  73.6629687   8.3041365  17.8929969  74.6354533
  11.9647262  13.2824994  57.9296456  11.4493885  14.0529599  58.1684843
  11.6924570  12.6090131  58.5529517  16.9381536  16.0357349  59.8649629
  16.1610979  15.6968509  59.4204791  17.6173017  16.0409972  59.1904594
  11.7533565  11.1552087  59.7556237  11.4483701  11.4698236  60.6066380
  12.7064007  11.2333506  59.7983570  10.1979997  17.3142310  61.4049191
   9.6701358  16.5795069  61.0922428   9.6967500  18.0916986  61.1589159
  15.1772843  15.5091330  66.5216237  14.5196517  16.1990592  66.6096366
  15.9813242  15.8987762  66.8650223  13.9878302  13.8635703  64.5720179
  14.5010183  14.4965695  65.0741889  14.6379526  13.2636899  64.2063539
   8.3432597  15.1322520  54.4084164   7.4359659  14.9011774  54.6075313
   8.8403629  14.3360139  54.5958145  11.2500676  23.8420027  57.3280850
  10.5762375  24.1451724  57.9365808  11.6366498  24.6449108  56.9786307
  10.4659133  11.3385159  66.8178519   9.5481694  11.5600106  66.6600207
  10.8819276  11.4131469  65.9590227  11.2494180  12.7376574  61.9481200
  11.9965999  13.2497971  61.6388322  11.5185770  12.4160627  62.8085593
   9.5220831  15.2335115  58.9308154   8.6132050  14.9494148  59.0280624
   9.5515914  15.6534194  58.0711461  14.7540098  18.8441704  62.6999322
  14.3002425  18.0032614  62.7564512  14.1234065  19.4803103  63.0374102
  13.6973018   9.7733691  63.9299989  12.9595774   9.2611077  64.2610232
  13.9499791   9.3334072  63.1183266  13.1973037  20.6818201  63.6349140
  13.4896012  21.2423258  62.9161505  13.7071658  20.9746762  64.3902299
   8.0705725  12.8463736  65.0317949   8.1254334  11.8937572  64.9560426
   7.2596927  13.0023175  65.5159248   9.2196918  16.7743859  56.2696233
   8.7816348  16.0579718  55.8101870   9.9607359  17.0019973  55.7081324
   8.1606662  21.4598552  64.7242593   8.1182841  21.6859399  63.7951125
   9.0769361  21.2261927  64.8728394  11.6072296  11.9282620  71.6223222
  11.9621684  12.1554093  72.4817688  12.2544427  12.2600997  71.0000477
  17.3370033  15.0501056  62.3272551  17.1987932  15.2402652  61.3993740
  16.9806252  15.8120439  62.7840602  17.3639413  17.1177583  67.3383823
  17.7975919  17.0252872  68.1866877  18.0770993  17.0935083  66.7003839
   6.2772463  18.3361581  64.5204556   7.0713062  17.8411901  64.3187131
   5.5664156  17.8079444  64.1572261  11.0967308  20.7179677  68.8716923
  11.1504330  21.2870613  69.6394639  10.2282089  20.8881562  68.5070960
  18.2254962  17.1601283  69.8716708  18.4190852  18.0647094  70.1175983
  18.1255580  16.7008702  70.7055293  13.2870071  17.3108026  75.4457589
  13.1355577  17.0818578  74.5287672  13.2774750  18.2678628  75.4588934
  10.0555407  14.8839939  70.4303855  10.9847467  15.0351098  70.2572822
   9.6346437  14.9723960  69.5752502   8.8543739  18.9090603  68.2002393
   8.7154825  18.5409388  69.0728331   8.0658335  19.4238243  68.0286350
   9.4491891  24.0099700  59.5427929   9.6243647  23.5387743  60.3573552
   8.7624679  24.6365466  59.7709190  10.4048954  18.2872206  65.5891230
  10.0698787  18.2472976  66.4848880   9.9052900  17.6216922  65.1161641
  13.3408146  15.6328240  55.8628290  12.7237317  14.9075068  55.7661343
  12.8724634  16.3937601  55.5195364   7.0075499  13.4059795  70.6027491
   7.7175117  12.7652988  70.5614110   6.9644807  13.6572690  71.5253672
  14.9962278  20.3427149  73.5234070  14.9374824  19.6586369  72.8564654
  15.3981796  21.0846139  73.0714696   4.0152976  27.1589062  66.3167789
   4.2549575  27.7907587  66.9946808   3.1722173  26.8077103  66.6033149
  14.9979685  18.3066733  71.7548050  14.1106464  17.9692654  71.8774449
  15.5678236  17.5749764  71.9916816   8.5280838  22.9668185  68.7209293
   8.4551010  23.7723156  69.2328598   8.0858231  23.1660151  67.8957315
   8.3170618  22.2039955  62.2312115   7.5338140  22.7461635  62.3250339
   9.0163363  22.7213935  62.6306356  19.4797025  13.7174950  66.5164612
  19.4686902  14.5999665  66.1458545  18.6114405  13.3646501  66.3219149
  10.9879522  22.8655019  70.8767452  11.7007494  23.5002484  70.8043353
  10.4969550  22.9618885  70.0607454  12.7097049  16.7706272  62.4484744
  11.7753327  16.8907734  62.2789448  12.8873717  15.8678738  62.1844754
  16.0969600  12.6123591  62.9834778  16.5630052  13.4451583  62.9095081
  16.5477101  12.1468572  63.6880036   6.0391435  20.6149462  71.6973023
   6.7400895  21.2485945  71.8502417   5.5686550  20.9564194  70.9368662
  14.1645831  18.9567412  59.9820930  14.4405675  18.8424007  60.8914804
  13.2950330  18.5584897  59.9433103  13.8392721  13.1694070  69.5225573
  13.1864172  13.4169977  68.8678026  14.2173101  12.3558208  69.1888050
  10.7999895  23.2053763  63.6253744  10.9822290  22.3875419  64.0881496
  11.6232881  23.4221455  63.1878633  11.1342061  22.1321948  60.8868792
  11.6629827  21.6214403  60.2738954  11.3970280  21.8164478  61.7514325
   1.6359153  20.1485817  68.6304126   2.2212590  19.4029505  68.7632030
   1.4383992  20.4589774  69.5140789   4.4897809  23.1837065  63.6466568
   3.8208184  23.6683193  63.1630608   4.3510678  23.4306285  64.5609946
   8.6303077  25.2180808  70.2449226   9.1821385  25.3812430  71.0098312
   8.9709271  25.8085246  69.5729251  13.4813952  20.0442066  76.0997881
  14.0253855  20.6572024  75.6052836  12.9000796  20.6021644  76.6164894
  11.7671464  23.1662784  67.2312908  11.6422604  22.3652524  66.7223854
  12.4250556  23.6608977  66.7426878  13.8306373  20.9671804  68.8592459
  12.8836708  20.8477155  68.7870785  14.1789146  20.0794302  68.9418720
  10.8352806  20.7624520  65.0596811  10.6877769  19.8341228  65.2404381
  11.6606300  20.7844611  64.5753886  14.4386928  21.5853079  66.1461684
  15.3633475  21.3795940  66.0086135  14.2702231  21.3369480  67.0551025
  14.2282244  22.1038746  61.5023775  14.4019122  21.5385169  60.7497627
  14.7211135  22.9039641  61.3203265  20.0821635  14.8675169  63.1214075
  20.5252781  14.1182495  62.7233198  19.2048146  14.8585306  62.7387807
  15.2157417  21.4205511  58.6020673  15.9108321  22.0412203  58.8207988
  15.5580567  20.5700862  58.8773051  17.1148840  18.8705216  60.1308004
  17.6400164  19.2092489  59.4057324  17.0271192  17.9352232  59.9471139
   8.7768889  22.7839290  72.2597881   9.0856015  22.5388437  73.1320580
   9.5744371  22.9885928  71.7716751   8.7989501  24.9377200  64.4903257
   8.3594491  24.4453578  65.1836114   9.5497618  24.3950167  64.2495332
   1.2781840  21.1288740  64.4927885   2.1039859  20.8292512  64.1126529
   0.9275892  20.3596363  64.9417674   6.2463373  20.4815209  66.5625559
   5.6243382  19.8185914  66.2627787   6.9168240  20.5076341  65.8799207
  16.8042746  19.5038120  75.4359202  16.0138290  19.4862259  74.8963701
  16.5676100  20.0426414  76.1908239  16.9240621  16.3530586  72.7491931
  16.9738626  16.1880594  73.6907453  16.8154544  15.4857845  72.3589811
   5.8076880  19.0319132  60.0384019   5.9565000  19.7154596  59.3850692
   6.6143323  19.0124222  60.5533475  14.2144383  12.3361514  74.0651237
  15.1154246  12.1967979  73.7735235  14.2892358  12.5015969  75.0049415
  18.4258818  18.7727528  72.9933952  18.1343626  19.1357508  73.8297413
  17.8130949  18.0594536  72.8147284  19.6254500  16.3380408  65.5136522
  20.4601391  16.7770212  65.6774083  19.7613629  15.8619061  64.6944768
  16.6746006  13.8960142  71.4614010  17.1500128  14.0887789  70.6532861
  15.7511571  13.9519328  71.2157394   3.5629513  15.0584310  61.0445088
   3.3175555  14.1546640  61.2425298   3.7325427  15.0601460  60.1024566
   9.3072285  21.5267262  57.5095767   8.7346252  22.1457450  57.0566239
   9.8805079  22.0766624  58.0435689  15.3747675  10.7725903  69.6942316
  16.3265098  10.8724000  69.7154540  15.2051125   9.9804171  70.2040400
  13.3962054   7.8581486  69.8801717  12.8011987   8.1386499  69.1848205
  13.1111751   8.3475387  70.6518458  12.5269545  21.8104413  58.6404349
  13.4600218  21.7449974  58.8437225  12.4392758  22.6460679  58.1818882
  15.1557562  21.1270283  55.6008297  15.0771193  20.7930147  56.4944055
  15.9767228  21.6192051  55.5999769  17.8535753  13.9932022  68.8084615
  17.8212073  13.0548023  68.9944299  18.4636376  14.0716059  68.0750440
   9.6919084  12.8628075  54.8511819  10.6378188  12.7334283  54.9200237
   9.3133329  12.1242737  55.3281247  18.0030241  10.7843066  68.8542898
  17.4869290  10.0001522  68.6672827  18.8870190  10.4561782  69.0189418
  23.6712303  15.0548029  67.9490652  24.4015691  14.7933317  68.5098355
  23.0619248  14.3176751  67.9892720  21.7527600  13.1955892  68.5465103
  21.0260763  13.0611857  67.9381595  21.3374887  13.5032720  69.3521821
   9.5757776  16.9145821  76.3112476  10.4960786  17.0924420  76.5052523
   9.5407359  15.9701867  76.1592176   2.5719849  14.8246856  68.9535257
   2.7905859  15.7563964  68.9723291   2.9845623  14.4654830  69.7390061
   3.2352322  17.7181735  69.1971502   4.1895575  17.6865678  69.1301433
   3.0364845  17.2572359  70.0121728   3.8251704  16.2882851  71.7642300
   4.6444593  16.7826930  71.7877137   4.0988511  15.3714820  71.7359867
  13.5818300   8.6793604  61.1270255  12.6944155   8.9643254  60.9090450
  13.9972289   8.5187367  60.2797532  16.9332836   8.7040125  64.8424594
  17.7093226   9.1936577  65.1149211  16.2080970   9.1298179  65.2996464
  19.3705395   9.4167744  65.8998535  19.9649885   9.1763480  65.1891843
  19.4431978   8.6974874  66.5272071   1.5902550  23.2601355  66.2141700
   1.4557018  22.5001756  65.6479698   1.1734613  23.9842255  65.7470489
  12.7261513  18.4438278  55.2218275  13.4297364  18.6488281  55.8375931
  12.0024162  19.0115040  55.4867359  13.5559324  14.1948140  61.3420545
  13.4994525  14.6516691  60.5028178  14.1087666  13.4338824  61.1643388
  17.3664130   9.9837871  62.1670665  17.1101064   9.5834507  62.9978872
  16.7416998  10.6981665  62.0420804  21.6776467  12.7233945  64.6741956
  21.1176025  12.7927134  65.4473518  21.0719971  12.5474929  63.9541452
   4.7471676  24.1570672  66.4260142   4.6304060  25.1016104  66.3238833
   3.9264123  23.8544233  66.8145942  14.6348211  18.8820808  57.2716735
  15.4693815  18.4502006  57.0894210  14.4732554  18.7102821  58.1993630
  14.2894103  15.3852921  58.6373074  14.2342907  15.2197192  57.6961518
  13.6640158  16.0928954  58.7935264  11.6040010  17.6901833  77.9626637
  12.4731170  17.8642485  77.6013272  11.1246762  18.5096250  77.8402366
   5.7726190  24.8098934  69.6416071   6.6753437  24.8422544  69.9582566
   5.5463560  23.8799385  69.6562407   7.5279792  23.5629920  66.3026149
   6.5775423  23.5631782  66.1890522   7.8312279  22.8162655  65.7862184
  23.2632486  29.3990459  67.3671912  23.9010896  29.2797206  66.6635252
  23.1453329  30.3471303  67.4259864  20.0722192  29.3517887  67.3033436
  19.7340704  29.2358951  66.4153971  20.9411960  28.9509052  67.2834443
  15.9309008  31.2053363  63.2930327  15.3673873  31.1143300  62.5246615
  15.8161403  30.3853268  63.7732820  20.5541975  30.5052739  73.2619642
  20.5430616  30.1105537  72.3900146  20.7162615  29.7718811  73.8553413
  13.4773440  32.7004555  66.1314548  14.2694732  32.3595379  65.7160847
  13.7170090  32.8099530  67.0516701  15.4364194  31.9613468  59.0031927
  16.2095070  31.4142455  58.8644802  15.7889593  32.8257717  59.2146388
  17.2749236  33.2889850  72.2098826  16.9839102  34.1935481  72.0945492
  17.9106221  33.3306378  72.9242896  18.2005443  30.6666699  68.8000186
  18.7969015  30.4422721  68.0857149  18.2580415  29.9251444  69.4025634
  17.7730472  28.1206134  56.6350377  18.0255992  27.5987655  55.8733840
  16.8355031  27.9572280  56.7377060  22.9883832  32.5614763  59.1413777
  22.3529665  32.6349389  59.8534681  22.6581238  33.1508362  58.4632856
  17.4926760  30.0234240  58.8374752  17.3763018  29.3479143  59.5055836
  17.6029020  29.5366614  58.0206905  19.8358301  29.4844387  62.5421441
  19.4716508  28.9575008  63.2534362  20.6925417  29.0942856  62.3687926
  25.7407602  20.7738720  69.8052707  25.4090927  21.6434131  69.5813922
  25.1453215  20.4575004  70.4846737  19.4763788  24.5134287  57.5382789
  19.6438191  25.3814523  57.9053260  19.2860957  24.6761569  56.6144079
  22.2339121  32.9751266  69.2048620  21.9339844  33.8776305  69.0964427
  21.8890181  32.7083449  70.0569773  15.6851603  29.4265063  65.2385324
  14.7602099  29.2941277  65.4463016  15.9336016  30.2059282  65.7355267
  19.4553009  26.9691944  58.5229456  19.3352634  27.4148995  59.3614936
  18.7605597  27.3177262  57.9642994  13.0460414  29.0698336  66.0729113
  13.1752795  29.3232815  66.9868525  12.3657865  29.6626044  65.7533768
  17.2159901  39.7395586  62.1719587  17.1383931  40.6903411  62.2508068
  16.6121545  39.3941459  62.8294514  19.7077131  26.9123452  74.8280954
  18.9310465  27.4717372  74.8183819  20.3467694  27.3980235  75.3495824
  17.9623503  29.7208905  74.3898921  18.7038188  30.2593949  74.1133745
  17.2560489  30.3475194  74.5470473  23.4378843  31.8638045  72.9871083
  23.8462199  31.4220456  72.2425715  22.7156104  31.2890673  73.2405276
  19.7909913  26.8010652  70.3604640  20.6371108  27.2250066  70.5039289
  19.7308551  26.1444277  71.0543203  23.7607658  32.4239236  66.7423372
  23.1316520  32.5884950  66.0399440  23.3733320  32.8380846  67.5134336
  27.6396889  33.3593674  64.0967735  26.9547928  33.7392575  63.5464769
  27.7240739  33.9689001  64.8299683  22.9409358  24.4615021  72.0185813
  22.6970290  25.2157081  71.4820089  23.2169289  24.8400368  72.8533060
  24.8947821  31.0053633  70.6963079  25.1064716  31.6485393  70.0197460
  24.8477569  30.1715949  70.2285009  22.4974050  23.6171454  67.5999651
  21.6358529  23.9152707  67.8916389  22.5236485  23.8341852  66.6680684
  19.3135619  32.1613644  64.0073457  19.7773965  32.4401347  63.2178079
  19.0492418  31.2597089  63.8246547  16.2059700  31.7085126  66.9453220
  16.7761058  32.1372394  66.3070705  16.7967812  31.4267710  67.6437406
  18.2504505  28.2836797  60.8163022  18.9528549  28.7357840  61.2836948
  17.9185134  27.6420615  61.4442915  16.6984867  26.8748553  75.1914231
  16.0683528  27.5564834  75.4249628  16.5920955  26.7631635  74.2467370
  11.9929839  26.5420349  66.1180155  11.2028893  26.7977878  65.6420266
  12.4841087  27.3568687  66.2232196  26.0093649  33.8825588  68.8685436
  26.8311093  33.4805776  68.5868118  26.0056052  33.7793823  69.8201552
  13.9444585  26.9064928  63.0763632  13.1475748  27.0183623  63.5947128
  13.7170177  27.2451581  62.2104523  19.7750252  33.4309632  71.0246147
  19.8394685  33.8930039  71.8604319  19.0661176  32.8006997  71.1528457
  10.2767542  26.7950840  68.5495146  10.5275581  27.6797850  68.8152722
  10.8127091  26.6155441  67.7770238  34.0999642  30.2264337  65.2170408
  33.3463350  29.6571735  65.0614412  34.2347183  30.1927001  66.1641042
  19.4898270  35.0977739  60.8925127  19.3543945  35.9429275  61.3209975
  20.0308083  35.2997017  60.1291061  15.9765610  21.1769319  77.5539482
  15.5832555  20.6235518  78.2287127  16.7931750  21.4879897  77.9446000
  12.9427667  32.6153177  61.4653052  13.4552188  33.4096427  61.6158617
  13.5950380  31.9179468  61.3986654  14.7522552  35.7318933  63.5475805
  14.9289181  36.6536898  63.3596789  15.5479386  35.4177353  63.9770185
  18.8933571  22.5927198  75.1459739  19.6343284  23.1934351  75.0664201
  19.1251494  21.8504836  74.5877781  14.0374909  27.7783565  73.4237969
  13.9228424  26.8768823  73.7245067  13.1819426  28.0247262  73.0722785
  21.1166746  35.7201306  75.0225469  20.6730601  34.9337684  74.7046374
  21.7783960  35.9080456  74.3569360  15.8753868  37.2497107  69.5486148
  16.4261293  37.1214171  68.7763142  15.0365344  37.5491996  69.1981040
  23.2147985  36.0004106  73.0506870  23.1966460  36.8212987  72.5587140
  24.1367905  35.8758181  73.2757012  19.6721039  33.5148235  73.8930379
  20.2049375  32.7536523  73.6629687  19.1435120  33.2221887  74.6354533
  22.8390734  18.6208301  69.4224021  22.4955003  19.5109943  69.3463131
  23.2069696  18.4309959  68.5593606  10.9076584  30.9441831  62.2412623
  11.7451806  31.3538840  62.0246330  11.0854852  30.0041274  62.2112817
  20.3888127  23.4566613  62.9881694  19.5329724  23.0673463  62.8087333
  20.8015079  23.5358574  62.1281480  21.9187274  20.9912956  67.3873254
  21.4152070  20.9543091  66.5741059  22.2117881  21.9005699  67.4469910
  18.1630160  21.0751686  66.3939436  19.0283157  20.8794495  66.0345325
  18.2307669  20.8462038  67.3208792  26.0166597  30.8383248  66.5216237
  25.3590272  31.5282509  66.6096366  26.8206997  31.2279680  66.8650223
  15.7692479  23.3053894  63.7655802  16.3436231  23.0829075  63.0328995
  16.3563461  23.3742588  64.5184404  16.0962066  25.3358355  57.7851688
  15.2599378  25.6733041  58.1060962  15.9566836  25.2007335  56.8478825
  18.0715147  20.1795143  62.4930872  17.4179559  19.8644160  61.8687487
  18.0295621  19.5570883  63.2190695  21.3052887  26.6677076  66.8178519
  20.3875448  26.8892023  66.6600207  21.7213031  26.7423387  65.9590227
  20.3614585  30.5627033  58.9308154  19.4525804  30.2786065  59.0280624
  20.3909669  30.9826111  58.0711461  25.5933852  34.1733622  62.6999322
  25.1396180  33.3324532  62.7564512  24.9627819  34.8095021  63.0374102
  24.0366792  36.0110119  63.6349140  24.3289766  36.5715176  62.9161505
  24.5465412  36.3038680  64.3902299  24.6378399  17.8801860  64.5241758
  24.9437276  17.0199224  64.2367673  25.3631004  18.4719480  64.3240752
  10.9302755  28.2832547  62.9123356  10.7327155  27.6901907  62.1874423
  10.3749419  27.9784757  63.6299295  18.9099479  28.1755653  65.0317949
  18.9648089  27.2229490  64.9560426  18.0990681  28.3315092  65.5159248
  20.0590673  32.1035776  56.2696233  19.6210103  31.3871635  55.8101870
  20.8001114  32.3311891  55.7081324  16.8491839  26.7932713  62.7908328
  16.0359705  27.0926884  63.1973520  17.3450833  26.3988402  63.5082810
  19.0000417  36.7890470  64.7242593  18.9576596  37.0151316  63.7951125
  19.9163116  36.5553845  64.8728394  22.4466051  27.2574537  71.6223222
  22.8015438  27.4846011  72.4817688  23.0938182  27.5892914  71.0000477
  16.3405914  24.3651069  68.4069563  16.9805293  24.2239828  67.7092526
  15.5083444  24.0785582  68.0308165  28.2033167  32.4469500  67.3383823
  28.6369674  32.3544789  68.1866877  28.9164748  32.4227001  66.7003839
  17.1166218  33.6653499  64.5204556  17.9106816  33.1703819  64.3187131
  16.4057910  33.1371362  64.1572261  21.9361062  36.0471594  68.8716923
  21.9898084  36.6162531  69.6394639  21.0675843  36.2173480  68.5070960
  13.4248981  27.8096581  60.5964308  12.4946569  27.7481036  60.8134270
  13.5206453  27.2872533  59.8000950  13.3434530  24.3351394  63.1842550
  13.6041347  25.2496727  63.0751710  14.1651702  23.8675836  63.3339163
  14.8159455  25.7489151  70.3541374  15.4882509  25.5406513  69.7054023
  13.9889242  25.5511237  69.9146607  29.0648717  32.4893201  69.8716708
  29.2584607  33.3939012  70.1175983  28.9649335  32.0300620  70.7055293
  20.7185028  22.3751092  72.3707035  20.0712943  23.0741041  72.2771512
  21.4886043  22.8087236  72.7383284  24.1263825  32.6399944  75.4457589
  23.9749332  32.4110495  74.5287672  24.1168505  33.5970545  75.4588934
  20.8949162  30.2131857  70.4303855  21.8241222  30.3643016  70.2572822
  20.4740192  30.3015877  69.5752502  19.6937494  34.2382521  68.2002393
  19.5548579  33.8701305  69.0728331  18.9052090  34.7530160  68.0286350
  21.2442709  33.6164124  65.5891230  20.9092541  33.5764894  66.4848880
  20.7446654  32.9508840  65.1161641  15.2186953  29.0231754  71.1143812
  15.0806751  28.2911992  71.7155351  16.1291876  28.9340654  70.8327999
  17.8469253  28.7351713  70.6027491  18.5568872  28.0944905  70.5614110
  17.8038562  28.9864608  71.5253672  25.8356032  35.6719066  73.5234070
  25.7768578  34.9878286  72.8564654  26.2375550  36.4138056  73.0714696
  16.5598187  25.7216931  72.4223131  16.0235544  25.2707669  73.0744727
  15.9714896  25.8562840  71.6793595  14.8546731  42.4880980  66.3167789
  15.0943329  43.1199504  66.9946808  14.0115927  42.1369020  66.6033149
  15.9700446  25.1805582  54.9849594  15.0929913  25.0594383  54.6211841
  16.4458199  24.3891661  54.7328483  25.8373439  33.6358650  71.7548050
  24.9500218  33.2984572  71.8774449  26.4071990  32.9041681  71.9916816
   7.4902586  29.9682742  65.0791102   8.1773626  29.6544472  64.4912117
   7.3350715  30.8724107  64.8058353  12.2937309  24.8572939  69.5076125
  12.2095497  24.2498608  68.7726535  11.4720015  25.3481957  69.5085622
  19.3674593  38.2960103  68.7209293  19.2944764  39.1015074  69.2328598
  18.9251986  38.4952068  67.8957315  19.1564372  37.5331873  62.2312115
  18.3731894  38.0753553  62.3250339  19.8557118  38.0505852  62.6306356
  22.4661022  23.3426502  64.8746320  22.9629722  22.5896464  64.5547391
  21.6948004  23.3790819  64.3089530  21.8273276  38.1946937  70.8767452
  22.5401248  38.8294401  70.8043353  21.3363305  38.2910803  70.0607454
  23.5490803  32.0998189  62.4484744  22.6147082  32.2199652  62.2789448
  23.7267472  31.1970656  62.1844754  19.0495991  25.4843885  64.6018005
  18.6793779  24.9314925  65.2898910  19.5455084  24.8802019  64.0493005
  16.8785190  35.9441380  71.6973023  17.5794649  36.5777863  71.8502417
  16.4080305  36.2856112  70.9368662  24.9080017  20.3096096  67.0225679
  23.9943097  20.5400322  67.1907886  25.3373119  20.3934540  67.8739712
  24.6786476  28.4985988  69.5225573  24.0257926  28.7461895  68.8678026
  25.0566856  27.6850126  69.1888050  21.6393650  38.5345681  63.6253744
  21.8216044  37.7167337  64.0881496  22.4626636  38.7513373  63.1878633
  20.7274049  29.2405799  76.0091610  20.0514686  29.1399928  76.6793986
  21.5501683  29.0845012  76.4727608  12.4752908  35.4777735  68.6304126
  13.0606345  34.7321423  68.7632030  12.2777746  35.7881692  69.5140789
  15.3291563  38.5128983  63.6466568  14.6601938  38.9975110  63.1630608
  15.1904433  38.7598203  64.5609946   7.0670563  28.0483335  67.3508569
   7.1054662  27.5146926  68.1445687   6.5610855  27.5218541  66.7319546
  19.4696832  40.5472726  70.2449226  20.0215140  40.7104348  71.0098312
  19.8103025  41.1377164  69.5729251  14.4461325  22.8947876  70.8471111
  14.5102651  23.7562707  70.4348509  14.3828445  22.2821878  70.1143469
  13.9213597  24.9671008  74.4944145  14.5485636  24.5848086  75.1081670
  13.0641516  24.7485210  74.8599838  24.3207706  35.3733984  76.0997881
  24.8647610  35.9863942  75.6052836  23.7394551  35.9313562  76.6164894
  10.6979140  26.7747438  60.4262500  10.9932581  25.8658116  60.3729554
   9.7967176  26.7535177  60.1043502  22.6065219  38.4954702  67.2312908
  22.4816358  37.6944441  66.7223854  23.2644310  38.9900895  66.7426878
  14.2273387  24.8503434  66.4090049  13.5059973  25.4639402  66.2697522
  15.0166643  25.3861199  66.3306695  24.6700127  36.2963722  68.8592459
  23.7230463  36.1769073  68.7870785  25.0182900  35.4086220  68.9418720
  17.0299701  22.1857861  72.6830700  17.5534103  22.4320157  73.4457010
  16.8112034  23.0177895  72.2633838  12.4266982  24.4561535  60.5501825
  12.0979688  23.5758914  60.3676931  12.7806352  24.4009204  61.4378214
  21.6746561  36.0916438  65.0596811  21.5271523  35.1633145  65.2404381
  22.5000054  36.1136529  64.5753886  15.5408805  24.7434505  60.9177303
  15.8804877  25.2720426  60.1955911  15.9880925  25.0814911  61.6935869
  25.2780682  36.9144997  66.1461684  26.2027230  36.7087858  66.0086135
  25.1095986  36.6661398  67.0551025  18.2352246  23.1271556  70.3680371
  17.8949066  22.3279369  70.7701051  17.5291252  23.4273267  69.7957204
  18.8868718  20.2120868  68.8207694  19.7094787  19.7381346  68.6986584
  19.1306781  20.9911352  69.3206380  17.5276952  23.2409127  59.1170596
  18.2485315  23.6190379  58.6134313  16.9042256  23.9598003  59.2205574
  16.4107296  26.9039989  66.6299673  16.2651877  27.2180292  67.5223954
  15.9332500  27.5224889  66.0770571  18.2703679  23.8942537  66.6780562
  18.2565248  22.9983630  66.3412860  18.9876107  23.9013200  67.3118848
  20.1229810  24.3279877  68.7233690  19.8647588  25.2496948  68.7218020
  19.5914850  23.9310311  69.4134154  10.8852958  29.4445333  69.5687334
  10.3406427  30.2205141  69.7007608  11.7632308  29.7916138  69.4106455
  17.6740575  22.7756917  61.9468132  17.7956486  21.8473563  62.1459020
  17.3842618  22.7895603  61.0346448  20.5431766  20.4611827  65.0834852
  20.5653462  20.5251161  64.1286832  20.9599825  19.6216336  65.2775358
  11.6718980  28.5715229  72.4617491  10.9300716  28.7197865  73.0482121
  11.3511725  28.8323495  71.5984240  27.9542594  34.1997134  60.1308004
  28.4793918  34.5384407  59.4057324  27.8664947  33.2644149  59.9471139
  19.6162643  38.1131208  72.2597881  19.9249769  37.8680354  73.1320580
  20.4138125  38.3177846  71.7716751  19.6383255  40.2669117  64.4903257
  19.1988245  39.7745496  65.1836114  20.3891372  39.7242085  64.2495332
  12.1175594  36.4580658  64.4927885  12.9433614  36.1584430  64.1126529
  11.7669646  35.6888281  64.9417674  17.0857127  35.8107126  66.5625559
  16.4637136  35.1477831  66.2627787  17.7561994  35.8368258  65.8799207
  10.3184199  34.3766985  65.4516819   9.4816107  33.9489159  65.2700820
  10.2907845  34.5699428  66.3887610  17.1581655  24.2888914  76.1558065
  17.2069810  25.1651037  75.7735834  17.7004169  23.7466307  75.5829708
  27.6436500  34.8330038  75.4359202  26.8532044  34.8154177  74.8963701
  27.4069855  35.3718331  76.1908239  27.7634375  31.6822504  72.7491931
  27.8132380  31.5172511  73.6907453  27.6548299  30.8149763  72.3589811
  16.6470634  34.3611050  60.0384019  16.7958754  35.0446514  59.3850692
  17.4537078  34.3416140  60.5533475  25.0538138  27.6653432  74.0651237
  25.9548001  27.5259897  73.7735235  25.1286112  27.8307887  75.0049415
  19.3880943  25.0420287  72.9104424  18.5184253  25.3353853  72.6387012
  19.6240423  25.6260732  73.6311687  29.2652572  34.1019446  72.9933952
  28.9737381  34.4649426  73.8297413  28.6524704  33.3886454  72.8147284
  30.4648255  31.6672325  65.5136522  31.2995146  32.1062129  65.6774083
  30.6007383  31.1910979  64.6944768  27.5139760  29.2252060  71.4614010
  27.9893882  29.4179706  70.6532861  26.5905326  29.2811246  71.2157394
  14.4023267  30.3876227  61.0445088  14.1569309  29.4838557  61.2425298
  14.5719182  30.3893378  60.1024566  22.0919977  21.2599904  70.4269844
  22.6101921  21.9960931  70.1016332  21.7375110  21.5663897  71.2616603
  13.6718915  26.1204585  58.5431250  12.9788160  26.1948940  57.8871286
  13.4270667  25.3564929  59.0652767  22.3432571  17.6800186  65.9470741
  22.6234325  17.0123375  66.5731167  23.1283178  17.8729282  65.4345404
  20.1466040  36.8559180  57.5095767  19.5740007  37.4749367  57.0566239
  20.7198833  37.4058542  58.0435689  24.2355809  23.1873403  69.8801717
  23.6405741  23.4678416  69.1848205  23.9505506  23.6767304  70.6518458
  28.6929507  29.3223940  68.8084615  28.6605827  28.3839941  68.9944299
  29.3030131  29.4007977  68.0750440  20.5312838  28.1919993  54.8511819
  21.4771943  28.0626201  54.9200237  20.1527083  27.4534655  55.3281247
  26.5034723  19.8575999  64.8138711  26.3059544  19.5491087  65.6982043
  27.1134428  20.5837638  64.9436641  34.5106057  30.3839947  67.9490652
  35.2409446  30.1225235  68.5098355  33.9013003  29.6468669  67.9892720
  20.4151531  32.2437739  76.3112476  21.3354540  32.4216338  76.5052523
  20.3801114  31.2993784  76.1592176  18.7155755  26.1169969  54.7866705
  17.8087211  25.8203082  54.8629418  18.9931736  25.8199787  53.9200991
   9.6333696  27.4376333  65.2365751   9.3136480  26.5841641  64.9440125
   9.0867124  27.6524911  65.9923718  13.4113603  30.1538774  68.9535257
  13.6299613  31.0855882  68.9723291  13.8239377  29.7946748  69.7390061
  20.3317821  20.6606859  60.9410946  19.5218549  20.3153944  61.3166192
  21.0202238  20.3514403  61.5298557  22.2608369  19.7384906  62.5635242
  22.8139408  20.1580359  63.2225266  22.4978456  18.8120654  62.6058198
  18.2841469  25.7271979  78.3438006  18.1838195  26.6766336  78.2750097
  18.0663011  25.3990218  77.4714076  17.4854540  22.9756905  54.9278684
  18.3473704  23.3011803  55.1874501  17.6704884  22.1888400  54.4151750
   9.5021956  31.0579244  67.2058873   8.8085427  30.6433197  66.6928827
  10.2494947  31.0999781  66.6092291  24.0890743  21.2490489  64.2735227
  24.5890521  21.3607023  63.4649546  24.7326351  20.9451542  64.9136036
  18.1472739  29.1569118  77.1603068  17.6639820  29.9569478  77.3666957
  18.2333678  29.1677063  76.2070512  11.4158698  30.9897498  65.0824887
  11.3929386  31.0885185  64.1306771  11.7259335  31.8362649  65.4042054
  14.0746076  33.0473653  69.1971502  15.0289330  33.0157595  69.1301433
  13.8758600  32.5864277  70.0121728  14.6645458  31.6174769  71.7642300
  15.4838347  32.1118848  71.7877137  14.9382266  30.7006737  71.7359867
  12.4296305  38.5893273  66.2141700  12.2950773  37.8293673  65.6479698
  12.0128367  39.3134172  65.7470489  15.5865431  39.4862590  66.4260142
  15.4697815  40.4308022  66.3238833  14.7657877  39.1836151  66.8145942
  25.1287857  30.7144839  58.6373074  25.0736661  30.5489110  57.6961518
  24.5033913  31.4220871  58.7935264   9.9180372  25.9512903  72.4634497
  10.5639236  25.4411857  72.9521722   9.7097524  26.6881585  73.0377922
  22.4433765  33.0193750  77.9626637  23.3124924  33.1934403  77.6013272
  21.9640516  33.8388167  77.8402366  18.4383983  20.2152948  58.2158393
  18.4262653  21.1594787  58.3726664  19.3307405  20.0323093  57.9217854
  16.6119945  40.1390851  69.6416071  17.5147192  40.1714462  69.9582566
  16.3857315  39.2091302  69.6562407  18.3673547  38.8921838  66.3026149
  17.4169178  38.8923700  66.1890522  18.6706033  38.1454573  65.7862184
  22.2536102  16.8095724  62.4704330  21.4868498  16.2554211  62.6161012
  22.6646807  16.8817593  63.3318481  14.2577863  23.0980520  76.5609511
  15.1209325  22.7417325  76.7712835  13.6843274  22.7594415  77.2484915
  26.7702762  46.5345281  63.2930327  26.2067627  46.4435218  62.5246615
  26.6555157  45.7145185  63.7732820  31.3935730  45.8344656  73.2619642
  31.3824370  45.4397454  72.3900146  31.5556369  45.1010729  73.8553413
  24.3167194  48.0296472  66.1314548  25.1088486  47.6887297  65.7160847
  24.5563844  48.1391448  67.0516701  28.1142991  48.6181768  72.2098826
  27.8232857  49.5227399  72.0945492  28.7499975  48.6598296  72.9242896
  29.0399198  45.9958617  68.8000186  29.6362770  45.7714639  68.0857149
  29.0974169  45.2543362  69.4025634  36.5801356  36.1030638  69.8052707
  36.2484681  36.9726048  69.5813922  35.9846970  35.7866922  70.4846737
  33.0732876  48.3043184  69.2048620  32.7733599  49.2068222  69.0964427
  32.7283935  48.0375367  70.0569773  26.5245357  44.7556980  65.2385324
  25.5995854  44.6233194  65.4463016  26.7729771  45.5351200  65.7355267
  23.8854168  44.3990254  66.0729113  24.0146550  44.6524733  66.9868525
  23.2051620  44.9917962  65.7533768  28.0553656  55.0687504  62.1719587
  27.9777685  56.0195329  62.2508068  27.4515299  54.7233376  62.8294514
  30.5470885  42.2415369  74.8280954  29.7704220  42.8009289  74.8183819
  31.1861448  42.7272152  75.3495824  28.8017258  45.0500823  74.3898921
  29.5431942  45.5885867  74.1133745  28.0954243  45.6767111  74.5470473
  34.2772597  47.1929963  72.9871083  34.6855953  46.7512374  72.2425715
  33.5549859  46.6182591  73.2405276  30.6303667  42.1302570  70.3604640
  31.4764863  42.5541983  70.5039289  30.5702305  41.4736194  71.0543203
  34.6001412  47.7531154  66.7423372  33.9710274  47.9176868  66.0399440
  34.2127074  48.1672763  67.5134336  33.7803113  39.7906938  72.0185813
  33.5364045  40.5448999  71.4820089  34.0563043  40.1692286  72.8533060
  35.7341576  46.3345551  70.6963079  35.9458471  46.9777310  70.0197460
  35.6871324  45.5007867  70.2285009  30.1529374  47.4905562  64.0073457
  30.6167719  47.7693265  63.2178079  29.8886172  46.5889006  63.8246547
  27.0453455  47.0377043  66.9453220  27.6154812  47.4664312  66.3070705
  27.6361567  46.7559628  67.6437406  27.5378621  42.2040471  75.1914231
  26.9077282  42.8856752  75.4249628  27.4314709  42.0923552  74.2467370
  22.8323594  41.8712267  66.1180155  22.0422648  42.1269795  65.6420266
  23.3234841  42.6860605  66.2232196  36.8487403  49.2117506  68.8685436
  37.6704847  48.8097693  68.5868118  36.8449806  49.1085740  69.8201552
  30.6144007  48.7601549  71.0246147  30.6788439  49.2221957  71.8604319
  29.9054931  48.1298914  71.1528457  21.1161297  42.1242757  68.5495146
  21.3669335  43.0089767  68.8152722  21.6520845  41.9447359  67.7770238
  30.3292025  50.4269657  60.8925127  30.1937699  51.2721193  61.3209975
  30.8701837  50.6288934  60.1291061  26.8159364  36.5061237  77.5539482
  26.4226310  35.9527435  78.2287127  27.6325505  36.8171815  77.9446000
  23.7821422  47.9445095  61.4653052  24.2945943  48.7388345  61.6158617
  24.4344135  47.2471385  61.3986654  25.5916307  51.0610851  63.5475805
  25.7682935  51.9828816  63.3596789  26.3873140  50.7469270  63.9770185
  29.7327325  37.9219116  75.1459739  30.4737039  38.5226269  75.0664201
  29.9645248  37.1796754  74.5877781  24.8768663  43.1075483  73.4237969
  24.7622178  42.2060740  73.7245067  24.0213181  43.3539180  73.0722785
  31.9560501  51.0493223  75.0225469  31.5124355  50.2629602  74.7046374
  32.6177715  51.2372374  74.3569360  26.7147622  52.5789025  69.5486148
  27.2655047  52.4506088  68.7763142  25.8759098  52.8783914  69.1981040
  34.0541739  51.3296023  73.0506870  34.0360214  52.1504904  72.5587140
  34.9761659  51.2050098  73.2757012  30.5114793  48.8440153  73.8930379
  31.0443130  48.0828441  73.6629687  29.9828874  48.5513805  74.6354533
  33.6784488  33.9500219  69.4224021  33.3348758  34.8401860  69.3463131
  34.0463451  33.7601876  68.5593606  21.7470339  46.2733749  62.2412623
  22.5845561  46.6830758  62.0246330  21.9248606  45.3333191  62.2112817
  32.7581029  36.3204874  67.3873254  32.2545824  36.2835009  66.5741059
  33.0511635  37.2297617  67.4469910  29.0023914  36.4043604  66.3939436
  29.8676911  36.2086412  66.0345325  29.0701423  36.1753955  67.3208792
  28.9108901  35.5087060  62.4930872  28.2573314  35.1936078  61.8687487
  28.8689375  34.8862801  63.2190695  21.7696510  43.6124464  62.9123356
  21.5720910  43.0193825  62.1874423  21.2143174  43.3076675  63.6299295
  29.8394171  52.1182388  64.7242593  29.7970350  52.3443234  63.7951125
  30.7556870  51.8845762  64.8728394  33.2859805  42.5866455  71.6223222
  33.6409193  42.8137928  72.4817688  33.9331936  42.9184832  71.0000477
  27.1799668  39.6942986  68.4069563  27.8199048  39.5531745  67.7092526
  26.3477199  39.4077500  68.0308165  39.0426922  47.7761418  67.3383823
  39.4763428  47.6836707  68.1866877  39.7558502  47.7518919  66.7003839
  27.9559972  48.9945417  64.5204556  28.7500571  48.4995737  64.3187131
  27.2451665  48.4663280  64.1572261  32.7754817  51.3763512  68.8716923
  32.8291839  51.9454448  69.6394639  31.9069598  51.5465397  68.5070960
  25.6553210  41.0781068  70.3541374  26.3276263  40.8698430  69.7054023
  24.8282997  40.8803154  69.9146607  39.9042471  47.8185119  69.8716708
  40.0978361  48.7230929  70.1175983  39.8043089  47.3592538  70.7055293
  31.5578782  37.7043009  72.3707035  30.9106697  38.4032959  72.2771512
  32.3279797  38.1379153  72.7383284  34.9657580  47.9691861  75.4457589
  34.8143086  47.7402413  74.5287672  34.9562259  48.9262463  75.4588934
  31.7342916  45.5423774  70.4303855  32.6634976  45.6934934  70.2572822
  31.3133946  45.6307795  69.5752502  30.5331248  49.5674439  68.2002393
  30.3942334  49.1993223  69.0728331  29.7445844  50.0822078  68.0286350
  32.0836463  48.9456041  65.5891230  31.7486296  48.9056811  66.4848880
  31.5840409  48.2800757  65.1161641  26.0580707  44.3523671  71.1143812
  25.9200505  43.6203910  71.7155351  26.9685631  44.2632571  70.8327999
  28.6863008  44.0643631  70.6027491  29.3962626  43.4236823  70.5614110
  28.6432316  44.3156526  71.5253672  36.6749787  51.0010984  73.5234070
  36.6162333  50.3170204  72.8564654  37.0769305  51.7429974  73.0714696
  27.3991942  41.0508849  72.4223131  26.8629299  40.5999587  73.0744727
  26.8108650  41.1854757  71.6793595  25.6940485  57.8172898  66.3167789
  25.9337084  58.4491422  66.9946808  24.8509682  57.4660938  66.6033149
  36.6767194  48.9650568  71.7548050  35.7893973  48.6276490  71.8774449
  37.2465745  48.2333599  71.9916816  18.3296341  45.2974660  65.0791102
  19.0167381  44.9836390  64.4912117  18.1744470  46.2016024  64.8058353
  23.1331063  40.1864856  69.5076125  23.0489252  39.5790526  68.7726535
  22.3113770  40.6773875  69.5085622  30.2068347  53.6252020  68.7209293
  30.1338519  54.4306992  69.2328598  29.7645740  53.8243986  67.8957315
  29.9958127  52.8623790  62.2312115  29.2125649  53.4045471  62.3250339
  30.6950872  53.3797770  62.6306356  32.6667031  53.5238854  70.8767452
  33.3795003  54.1586319  70.8043353  32.1757059  53.6202720  70.0607454
  34.3884558  47.4290107  62.4484744  33.4540836  47.5491569  62.2789448
  34.5661226  46.5262574  62.1844754  27.7178944  51.2733298  71.6973023
  28.4188404  51.9069781  71.8502417  27.2474059  51.6148029  70.9368662
  35.7473772  35.6388013  67.0225679  34.8336852  35.8692240  67.1907886
  36.1766873  35.7226457  67.8739712  32.4787404  53.8637598  63.6253744
  32.6609799  53.0459254  64.0881496  33.3020390  54.0805291  63.1878633
  31.5667803  44.5697716  76.0091610  30.8908440  44.4691846  76.6793986
  32.3895437  44.4136930  76.4727608  23.3146662  50.8069653  68.6304126
  23.9000099  50.0613341  68.7632030  23.1171501  51.1173610  69.5140789
  26.1685318  53.8420900  63.6466568  25.4995693  54.3267028  63.1630608
  26.0298187  54.0890121  64.5609946  17.9064317  43.3775253  67.3508569
  17.9448417  42.8438844  68.1445687  17.4004610  42.8510459  66.7319546
  30.3090586  55.8764644  70.2449226  30.8608894  56.0396265  71.0098312
  30.6496780  56.4669082  69.5729251  25.2855079  38.2239794  70.8471111
  25.3496406  39.0854624  70.4348509  25.2222200  37.6113795  70.1143469
  24.7607352  40.2962926  74.4944145  25.3879391  39.9140003  75.1081670
  23.9035271  40.0777128  74.8599838  35.1601460  50.7025901  76.0997881
  35.7041364  51.3155860  75.6052836  34.5788305  51.2605480  76.6164894
  21.5372895  42.1039355  60.4262500  21.8326336  41.1950034  60.3729554
  20.6360930  42.0827095  60.1043502  33.4458973  53.8246619  67.2312908
  33.3210113  53.0236359  66.7223854  34.1038065  54.3192813  66.7426878
  35.5093882  51.6255639  68.8592459  34.5624217  51.5060991  68.7870785
  35.8576655  50.7378137  68.9418720  27.8693455  37.5149778  72.6830700
  28.3927857  37.7612075  73.4457010  27.6505788  38.3469813  72.2633838
  32.5140315  51.4208356  65.0596811  32.3665278  50.4925063  65.2404381
  33.3393809  51.4428446  64.5753886  36.1174437  52.2436914  66.1461684
  37.0420984  52.0379776  66.0086135  35.9489740  51.9953315  67.0551025
  29.7262472  35.5412786  68.8207694  30.5488541  35.0673264  68.6986584
  29.9700536  36.3203270  69.3206380  21.7246713  44.7737251  69.5687334
  21.1800181  45.5497059  69.7007608  22.6026063  45.1208055  69.4106455
  31.3825520  35.7903745  65.0834852  31.4047217  35.8543078  64.1286832
  31.7993579  34.9508254  65.2775358  22.5112735  43.9007147  72.4617491
  21.7694471  44.0489782  73.0482121  22.1905479  44.1615413  71.5984240
  30.4556397  53.4423125  72.2597881  30.7643524  53.1972272  73.1320580
  31.2531880  53.6469764  71.7716751  30.4777010  55.5961035  64.4903257
  30.0382000  55.1037414  65.1836114  31.2285126  55.0534003  64.2495332
  22.9569349  51.7872576  64.4927885  23.7827368  51.4876348  64.1126529
  22.6063401  51.0180198  64.9417674  27.9250882  51.1399044  66.5625559
  27.3030891  50.4769749  66.2627787  28.5955749  51.1660176  65.8799207
  21.1577954  49.7058902  65.4516819  20.3209862  49.2781077  65.2700820
  21.1301599  49.8991346  66.3887610  27.9975409  39.6180832  76.1558065
  28.0463565  40.4942955  75.7735834  28.5397923  39.0758225  75.5829708
  38.4830255  50.1621955  75.4359202  37.6925799  50.1446094  74.8963701
  38.2463609  50.7010249  76.1908239  38.6028130  47.0114422  72.7491931
  38.6526135  46.8464429  73.6907453  38.4942053  46.1441681  72.3589811
  27.4864389  49.6902967  60.0384019  27.6352509  50.3738432  59.3850692
  28.2930832  49.6708057  60.5533475  35.8931892  42.9945350  74.0651237
  36.7941755  42.8551815  73.7735235  35.9679867  43.1599805  75.0049415
  30.2274698  40.3712204  72.9104424  29.3578007  40.6645771  72.6387012
  30.4634178  40.9552649  73.6311687  40.1046327  49.4311363  72.9933952
  39.8131135  49.7941344  73.8297413  39.4918458  48.7178372  72.8147284
  38.3533515  44.5543978  71.4614010  38.8287637  44.7471624  70.6532861
  37.4299080  44.6103164  71.2157394  25.2417022  45.7168145  61.0445088
  24.9963064  44.8130475  61.2425298  25.4112936  45.7185295  60.1024566
  32.9313731  36.5891821  70.4269844  33.4495675  37.3252848  70.1016332
  32.5768864  36.8955815  71.2616603  33.1826326  33.0092104  65.9470741
  33.4628079  32.3415293  66.5731167  33.9676933  33.2021200  65.4345404
  35.0749563  38.5165321  69.8801717  34.4799496  38.7970334  69.1848205
  34.7899260  39.0059222  70.6518458  36.8345071  51.7854118  55.6008297
  36.7558702  51.4513982  56.4944055  37.6554737  52.2775886  55.5999769
  37.3428477  35.1867917  64.8138711  37.1453298  34.8783005  65.6982043
  37.9528183  35.9129556  64.9436641  45.3499812  45.7131864  67.9490652
  46.0803200  45.4517153  68.5098355  44.7406757  44.9760586  67.9892720
  31.2545285  47.5729657  76.3112476  32.1748295  47.7508256  76.5052523
  31.2194868  46.6285702  76.1592176  20.4727450  42.7668250  65.2365751
  20.1530235  41.9133559  64.9440125  19.9260878  42.9816829  65.9923718
  24.2507358  45.4830691  68.9535257  24.4693367  46.4147799  68.9723291
  24.6633132  45.1238666  69.7390061  33.1002124  35.0676824  62.5635242
  33.6533162  35.4872277  63.2225266  33.3372210  34.1412572  62.6058198
  29.1235223  41.0563897  78.3438006  29.0231950  42.0058254  78.2750097
  28.9056765  40.7282136  77.4714076  20.3415710  46.3871162  67.2058873
  19.6479182  45.9725115  66.6928827  21.0888701  46.4291698  66.6092291
  34.9284497  36.5782406  64.2735227  35.4284276  36.6898941  63.4649546
  35.5720105  36.2743459  64.9136036  28.9866493  44.4861036  77.1603068
  28.5033575  45.2861396  77.3666957  29.0727432  44.4968981  76.2070512
  22.2552453  46.3189416  65.0824887  22.2323141  46.4177103  64.1306771
  22.5653089  47.1654566  65.4042054  24.9139831  48.3765571  69.1971502
  25.8683084  48.3449513  69.1301433  24.7152354  47.9156194  70.0121728
  25.5039213  46.9466687  71.7642300  26.3232102  47.4410765  71.7877137
  25.7776020  46.0298655  71.7359867  23.2690059  53.9185190  66.2141700
  23.1344527  53.1585591  65.6479698  22.8522122  54.6426090  65.7470489
  26.4259185  54.8154507  66.4260142  26.3091569  55.7599940  66.3238833
  25.6051631  54.5128069  66.8145942  20.7574127  41.2804821  72.4634497
  21.4032991  40.7703775  72.9521722  20.5491278  42.0173502  73.0377922
  33.2827519  48.3485668  77.9626637  34.1518679  48.5226320  77.6013272
  32.8034271  49.1680085  77.8402366  27.4513699  55.4682769  69.6416071
  28.3540946  55.5006379  69.9582566  27.2251069  54.5383220  69.6562407
  29.2067301  54.2213756  66.3026149  28.2562932  54.2215617  66.1890522
  29.5099788  53.4746490  65.7862184  33.0929857  32.1387642  62.4704330
  32.3262253  31.5846129  62.6161012  33.5040562  32.2109511  63.3318481
  25.0971618  38.4272438  76.5609511  25.9603079  38.0709243  76.7712835
  24.5237029  38.0886333  77.2484915  41.7509701  60.0101722  67.3033436
  41.4128213  59.8942787  66.4153971  42.6199469  59.6092887  67.2834443
  37.6096517  61.8637199  63.2930327  37.0461382  61.7727135  62.5246615
  37.4948912  61.0437103  63.7732820  42.2329484  61.1636574  73.2619642
  42.2218125  60.7689372  72.3900146  42.3950124  60.4302646  73.8553413
  35.1560949  63.3588390  66.1314548  35.9482241  63.0179215  65.7160847
  35.3957599  63.4683365  67.0516701  37.1151703  62.6197303  59.0031927
  37.8882579  62.0726290  58.8644802  37.4677102  63.4841553  59.2146388
  38.9536745  63.9473686  72.2098826  38.6626611  64.8519317  72.0945492
  39.5893730  63.9890213  72.9242896  39.8792952  61.3250534  68.8000186
  40.4756524  61.1006557  68.0857149  39.9367924  60.5835280  69.4025634
  39.4517981  58.7789970  56.6350377  39.7043501  58.2571491  55.8733840
  38.5142540  58.6156115  56.7377060  44.4961263  57.7825748  64.4425120
  45.2824353  57.3645171  64.0915537  44.7599968  58.6871840  64.6106768
  49.8969690  57.7200981  65.3458098  50.6294862  57.1500198  65.5795928
  49.1409046  57.3322582  65.7864604  39.1714269  60.6818075  58.8374752
  39.0550527  60.0062979  59.5055836  39.2816529  60.1950449  58.0206905
  41.5145810  60.1428223  62.5421441  41.1504017  59.6158844  63.2534362
  42.3712926  59.7526692  62.3687926  47.4195111  51.4322555  69.8052707
  47.0878436  52.3017966  69.5813922  46.8240724  51.1158839  70.4846737
  41.1551297  55.1718122  57.5382789  41.3225700  56.0398359  57.9053260
  40.9648466  55.3345404  56.6144079  37.3639112  60.0848898  65.2385324
  36.4389608  59.9525112  65.4463016  37.6123525  60.8643117  65.7355267
  47.3123774  56.1517641  66.8846057  46.4040651  56.0833050  66.5904818
  47.2611370  56.6289586  67.7127882  41.1340518  57.6275780  58.5229456
  41.0140143  58.0732831  59.3614936  40.4393106  57.9761097  57.9642994
  34.7247923  59.7282172  66.0729113  34.8540304  59.9816650  66.9868525
  34.0445374  60.3209880  65.7533768  41.3864640  57.5707287  74.8280954
  40.6097974  58.1301207  74.8183819  42.0255203  58.0564070  75.3495824
  49.1785421  54.3534080  68.6623931  48.5359801  54.6466613  68.0163726
  48.6740349  54.2387000  69.4677128  46.8325584  58.0997253  59.3509790
  47.7443440  58.3324640  59.1757488  46.3235231  58.6834297  58.7884869
  39.6411012  60.3792740  74.3898921  40.3825697  60.9177784  74.1133745
  38.9347998  61.0059029  74.5470473  41.4697422  57.4594488  70.3604640
  42.3158617  57.8833901  70.5039289  41.4096060  56.8028112  71.0543203
  44.6196867  55.1198856  72.0185813  44.3757799  55.8740916  71.4820089
  44.8956798  55.4984204  72.8533060  44.1761559  54.2755289  67.5999651
  43.3146038  54.5736542  67.8916389  44.2023994  54.4925688  66.6680684
  37.8847209  62.3668961  66.9453220  38.4548567  62.7956229  66.3070705
  38.4755321  62.0851546  67.6437406  39.9292014  58.9420632  60.8163022
  40.6316058  59.3941676  61.2836948  39.5972643  58.3004451  61.4442915
  38.3772376  57.5332388  75.1914231  37.7471037  58.2148669  75.4249628
  38.2708464  57.4215470  74.2467370  33.6717348  57.2004185  66.1180155
  32.8816402  57.4561713  65.6420266  34.1628596  58.0152522  66.2232196
  35.6232094  57.5648764  63.0763632  34.8263257  57.6767458  63.5947128
  35.3957686  57.9035416  62.2104523  31.9555051  57.4534675  68.5495146
  32.2063090  58.3381685  68.8152722  32.4914600  57.2739277  67.7770238
  55.7787151  60.8848172  65.2170408  55.0250859  60.3155570  65.0614412
  55.9134692  60.8510837  66.1641042  37.6553119  51.8353154  77.5539482
  37.2620064  51.2819353  78.2287127  38.4719259  52.1463733  77.9446000
  34.6215176  63.2737013  61.4653052  35.1339697  64.0680263  61.6158617
  35.2737889  62.5763303  61.3986654  36.4310061  66.3902769  63.5475805
  36.6076690  67.3120733  63.3596789  37.2266895  66.0761188  63.9770185
  40.5721080  53.2511033  75.1459739  41.3130793  53.8518187  75.0664201
  40.8039003  52.5088671  74.5877781  35.7162418  58.4367401  73.4237969
  35.6015933  57.5352658  73.7245067  34.8606935  58.6831097  73.0722785
  37.5541377  67.9080943  69.5486148  38.1048802  67.7798006  68.7763142
  36.7152853  68.2075832  69.1981040  44.5178243  49.2792136  69.4224021
  44.1742512  50.1693778  69.3463131  44.8857205  49.0893794  68.5593606
  32.5864093  61.6025667  62.2412623  33.4239315  62.0122675  62.0246330
  32.7642361  60.6625109  62.2112817  44.4828525  59.2700747  57.9296456
  43.9675149  60.0405352  58.1684843  44.2105834  58.5965884  58.5529517
  43.5974783  51.6496792  67.3873254  43.0939579  51.6126927  66.5741059
  43.8905390  52.5589534  67.4469910  39.8417669  51.7335521  66.3939436
  40.7070666  51.5378330  66.0345325  39.9095178  51.5045873  67.3208792
  49.4562799  62.0233102  59.8649629  48.6792242  61.6844262  59.4204791
  50.1354280  62.0285725  59.1904594  44.2714829  57.1427840  59.7556237
  43.9664964  57.4573989  60.6066380  45.2245271  57.2209259  59.7983570
  46.5059565  59.8511456  64.5720179  47.0191447  60.4841448  65.0741889
  47.1560789  59.2512652  64.2063539  37.7749575  55.9942190  57.7851688
  36.9386887  56.3316877  58.1060962  37.6354345  55.8591170  56.8478825
  40.8613861  61.1198273  54.4084164  39.9540922  60.8887527  54.6075313
  41.3584893  60.3235892  54.5958145  42.9840396  57.3260912  66.8178519
  42.0662957  57.5475859  66.6600207  43.4000540  57.4007222  65.9590227
  43.7675444  58.7252327  61.9481200  44.5147263  59.2373725  61.6388322
  44.0367033  58.4036380  62.8085593  42.0402094  61.2210868  58.9308154
  41.1313313  60.9369901  59.0280624  42.0697178  61.6409947  58.0711461
  32.6090264  58.9416382  62.9123356  32.4114664  58.3485743  62.1874423
  32.0536928  58.6368592  63.6299295  40.5886988  58.8339489  65.0317949
  40.6435598  57.8813325  64.9560426  39.7778190  58.9898928  65.5159248
  41.7378182  62.7619612  56.2696233  41.2997612  62.0455471  55.8101870
  42.4788623  62.9895727  55.7081324  38.5279348  57.4516548  62.7908328
  37.7147213  57.7510719  63.1973520  39.0238342  57.0572237  63.5082810
  44.1253560  57.9158373  71.6223222  44.4802947  58.1429846  72.4817688
  44.7725691  58.2476750  71.0000477  38.0193423  55.0234904  68.4069563
  38.6592802  54.8823663  67.7092526  37.1870953  54.7369417  68.0308165
  38.7953727  64.3237334  64.5204556  39.5894325  63.8287654  64.3187131
  38.0845419  63.7955197  64.1572261  35.1036490  58.4680416  60.5964308
  34.1734078  58.4064872  60.8134270  35.1993962  57.9456369  59.8000950
  35.0222039  54.9935229  63.1842550  35.2828856  55.9080562  63.0751710
  35.8439211  54.5259671  63.3339163  36.4946964  56.4072986  70.3541374
  37.1670018  56.1990348  69.7054023  35.6676751  56.2095072  69.9146607
  42.3972536  53.0334927  72.3707035  41.7500452  53.7324877  72.2771512
  43.1673552  53.4671071  72.7383284  36.8974462  59.6815589  71.1143812
  36.7594260  58.9495828  71.7155351  37.8079385  59.5924489  70.8327999
  45.8589409  61.6203993  55.8628290  45.2418580  60.8950821  55.7661343
  45.3905898  62.3813354  55.5195364  39.5256762  59.3935548  70.6027491
  40.2356381  58.7528741  70.5614110  39.4826071  59.6448443  71.5253672
  38.2385696  56.3800766  72.4223131  37.7023053  55.9291505  73.0744727
  37.6502405  56.5146675  71.6793595  36.5334240  73.1464816  66.3167789
  36.7730838  73.7783340  66.9946808  35.6903436  72.7952856  66.6033149
  37.6487955  55.8389418  54.9849594  36.7717422  55.7178218  54.6211841
  38.1245708  55.0475496  54.7328483  29.1690095  60.6266577  65.0791102
  29.8561135  60.3128307  64.4912117  29.0138224  61.5307942  64.8058353
  33.9724818  55.5156774  69.5076125  33.8883006  54.9082443  68.7726535
  33.1507524  56.0065792  69.5085622  48.6150864  58.5999344  62.9834778
  49.0811316  59.4327336  62.9095081  49.0658364  58.1344326  63.6880036
  38.5572699  66.6025215  71.6973023  39.2582158  67.2361698  71.8502417
  38.0867814  66.9439947  70.9368662  42.4061558  59.8989634  76.0091610
  41.7302195  59.7983763  76.6793986  43.2289192  59.7428848  76.4727608
  34.1540417  66.1361571  68.6304126  34.7393854  65.3905258  68.7632030
  33.9565255  66.4465527  69.5140789  37.0079072  69.1712818  63.6466568
  36.3389447  69.6558946  63.1630608  36.8691942  69.4182038  64.5609946
  28.7458072  58.7067171  67.3508569  28.7842171  58.1730761  68.1445687
  28.2398364  58.1802376  66.7319546  41.1484341  71.2056561  70.2449226
  41.7002649  71.3688183  71.0098312  41.4890534  71.7960999  69.5729251
  36.1248834  53.5531711  70.8471111  36.1890160  54.4146542  70.4348509
  36.0615954  52.9405713  70.1143469  35.6001106  55.6254844  74.4944145
  36.2273145  55.2431921  75.1081670  34.7429025  55.4069046  74.8599838
  32.3766649  57.4331273  60.4262500  32.6720090  56.5241951  60.3729554
  31.4754685  57.4119012  60.1043502  35.9060896  55.5087269  66.4090049
  35.1847482  56.1223237  66.2697522  36.6954152  56.0445034  66.3306695
  38.7087210  52.8441696  72.6830700  39.2321612  53.0903992  73.4457010
  38.4899543  53.6761731  72.2633838  39.9139755  53.7855391  70.3680371
  39.5736575  52.9863204  70.7701051  39.2078761  54.0857102  69.7957204
  38.0894805  57.5623824  66.6299673  37.9439386  57.8764127  67.5223954
  37.6120009  58.1808724  66.0770571  39.9491188  54.5526372  66.6780562
  39.9352757  53.6567465  66.3412860  40.6663616  54.5597036  67.3118848
  41.8017319  54.9863712  68.7233690  41.5435097  55.9080783  68.7218020
  41.2702359  54.5894147  69.4134154  32.5640467  60.1029169  69.5687334
  32.0193936  60.8788976  69.7007608  33.4419817  60.4499973  69.4106455
  52.6002899  60.8550922  63.1214075  53.0434045  60.1058248  62.7233198
  51.7229409  60.8461059  62.7387807  33.3506489  59.2299065  72.4617491
  32.6088225  59.3781700  73.0482121  33.0299234  59.4907330  71.5984240
  41.2950152  68.7715043  72.2597881  41.6037278  68.5264190  73.1320580
  42.0925634  68.9761681  71.7716751  33.7963103  67.1164493  64.4927885
  34.6221123  66.8168265  64.1126529  33.4457155  66.3472116  64.9417674
  31.9971708  65.0350820  65.4516819  31.1603616  64.6072994  65.2700820
  31.9695353  65.2283263  66.3887610  38.8369164  54.9472750  76.1558065
  38.8857319  55.8234873  75.7735834  39.3791678  54.4050143  75.5829708
  38.3258143  65.0194885  60.0384019  38.4746263  65.7030349  59.3850692
  39.1324587  64.9999975  60.5533475  46.7325647  58.3237267  74.0651237
  47.6335510  58.1843732  73.7735235  46.8073621  58.4891722  75.0049415
  41.0668452  55.7004122  72.9104424  40.1971762  55.9937688  72.6387012
  41.3027932  56.2844567  73.6311687  52.1435764  62.3256161  65.5136522
  52.9782655  62.7645965  65.6774083  52.2794892  61.8494814  64.6944768
  36.0810776  61.0460063  61.0445088  35.8356818  60.1422393  61.2425298
  36.2506691  61.0477213  60.1024566  43.7707486  51.9183739  70.4269844
  44.2889430  52.6544766  70.1016332  43.4162619  52.2247732  71.2616603
  35.3506424  56.7788420  58.5431250  34.6575669  56.8532775  57.8871286
  35.1058176  56.0148764  59.0652767  44.0220080  48.3384022  65.9470741
  44.3021834  47.6707211  66.5731167  44.8070687  48.5313117  65.4345404
  47.8928938  56.7601656  69.6942316  48.8446361  56.8599753  69.7154540
  47.7232389  55.9679924  70.2040400  45.9143318  53.8457239  69.8801717
  45.3193250  54.1262252  69.1848205  45.6293015  54.3351140  70.6518458
  42.2100347  58.8503828  54.8511819  43.1559452  58.7210036  54.9200237
  41.8314592  58.1118490  55.3281247  50.5211505  56.7718819  68.8542898
  50.0050553  55.9877275  68.6672827  51.4051453  56.4437535  69.0189418
  42.0939040  62.9021574  76.3112476  43.0142049  63.0800173  76.5052523
  42.0588623  61.9577620  76.1592176  40.3943264  56.7753805  54.7866705
  39.4874720  56.4786917  54.8629418  40.6719245  56.4783623  53.9200991
  31.3121205  58.0960168  65.2365751  30.9923989  57.2425476  64.9440125
  30.7654633  58.3108746  65.9923718  35.0901112  60.8122609  68.9535257
  35.3087122  61.7439717  68.9723291  35.5026886  60.4530583  69.7390061
  39.9628978  56.3855815  78.3438006  39.8625704  57.3350172  78.2750097
  39.7450520  56.0574054  77.4714076  39.1642049  53.6340740  54.9278684
  40.0261213  53.9595638  55.1874501  39.3492393  52.8472236  54.4151750
  31.1809465  61.7163080  67.2058873  30.4872936  61.3017032  66.6928827
  31.9282456  61.7583616  66.6092291  39.8260248  59.8152954  77.1603068
  39.3427329  60.6153314  77.3666957  39.9121187  59.8260899  76.2070512
  33.0946207  61.6481333  65.0824887  33.0716895  61.7469021  64.1306771
  33.4046844  62.4946484  65.4042054  35.7533585  63.7057488  69.1971502
  36.7076839  63.6741431  69.1301433  35.5546109  63.2448112  70.0121728
  36.3432967  62.2758604  71.7642300  37.1625856  62.7702683  71.7877137
  36.6169775  61.3590573  71.7359867  51.8886658  55.4043497  65.8998535
  52.4831149  55.1639233  65.1891843  51.9613242  54.6850627  66.5272071
  34.1083814  69.2477108  66.2141700  33.9738282  68.4877509  65.6479698
  33.6915876  69.9718008  65.7470489  46.0740587  60.1823893  61.3420545
  46.0175789  60.6392444  60.5028178  46.6268930  59.4214577  61.1643388
  49.8845393  55.9713625  62.1670665  49.6282327  55.5710260  62.9978872
  49.2598261  56.6857418  62.0420804  54.1957731  58.7109698  64.6741956
  53.6357289  58.7802887  65.4473518  53.5901234  58.5350682  63.9541452
  37.2652940  70.1446425  66.4260142  37.1485324  71.0891857  66.3238833
  36.4445386  69.8419986  66.8145942  46.8075366  61.3728674  58.6373074
  46.7524170  61.2072945  57.6961518  46.1821422  62.0804707  58.7935264
  31.5967881  56.6096738  72.4634497  32.2426745  56.0995692  72.9521722
  31.3885033  57.3465420  73.0377922  44.1221274  63.6777586  77.9626637
  44.9912433  63.8518238  77.6013272  43.6428025  64.4972003  77.8402366
  38.2907454  70.7974687  69.6416071  39.1934701  70.8298297  69.9582566
  38.0644824  69.8675138  69.6562407  35.9365372  53.7564355  76.5609511
  36.7996834  53.4001160  76.7712835  35.3630783  53.4178250  77.2484915
  57.1559663  63.8677613  64.5241758  57.4618540  63.0074977  64.2367673
  57.8812268  64.4595233  64.3240752  47.3727994  88.4756733  66.3167789
  47.6124593  89.1075257  66.9946808  46.5297191  88.1244773  66.6033149
  40.0083850  75.9558495  65.0791102  40.6954890  75.6420225  64.4912117
  39.8531979  76.8599860  64.8058353  57.4261281  66.2971849  67.0225679
  56.5124361  66.5276075  67.1907886  57.8554382  66.3810293  67.8739712
  44.9934171  81.4653488  68.6304126  45.5787608  80.7197176  68.7632030
  44.7959010  81.7757445  69.5140789  39.5851826  74.0359088  67.3508569
  39.6235926  73.5022679  68.1445687  39.0792119  73.5094294  66.7319546
  43.4034222  75.4321086  69.5687334  42.8587690  76.2080894  69.7007608
  44.2813572  75.7791891  69.4106455  44.1900244  74.5590982  72.4617491
  43.4481980  74.7073618  73.0482121  43.8692988  74.8199248  71.5984240
  42.8365463  80.3642738  65.4516819  41.9997371  79.9364912  65.2700820
  42.8089108  80.5575181  66.3887610  54.8613835  63.6675939  65.9470741
  55.1415588  62.9999128  66.5731167  55.6464442  63.8605035  65.4345404
  54.7789633  65.7260659  62.5635242  55.3320671  66.1456112  63.2225266
  55.0159719  64.7996407  62.6058198  42.0203219  77.0454997  67.2058873
  41.3266691  76.6308950  66.6928827  42.7676210  77.0875534  66.6092291
  56.6072006  67.2366242  64.2735227  57.1071785  67.3482776  63.4649546
  57.2507614  66.9327295  64.9136036  47.1826722  77.6050522  71.7642300
  48.0019611  78.0994601  71.7877137  47.4563529  76.6882490  71.7359867
  44.9477568  84.5769026  66.2141700  44.8132036  83.8169426  65.6479698
  44.5309631  85.3009925  65.7470489  54.7717366  62.7971477  62.4704330
  54.0049762  62.2429964  62.6161012  55.1828071  62.8693346  63.3318481
  64.8683585  96.1892002  58.6044792  64.2171564  96.7746082  58.2178806
  65.6627947  96.7198197  58.6639830  60.6324254  94.6057521  72.2098826
  60.3414120  95.5103152  72.0945492  61.2681239  94.6474049  72.9242896
  66.3458850  93.8782434  59.1413777  65.7104683  93.9517060  59.8534681
  66.0156256  94.4676032  58.4632856  71.5757199  88.3784816  65.3458098
  72.3082371  87.8084033  65.5795928  70.8196555  87.9906417  65.7864604
  60.5734919 101.0563257  62.1719587  60.4958949 102.0071082  62.2508068
  59.9696563 100.7109129  62.8294514  67.1182676  93.7406907  66.7423372
  66.4891538  93.9052621  66.0399440  66.7308338  94.1548516  67.5134336
  70.9971907  94.6761345  64.0967735  70.3122946  95.0560246  63.5464769
  71.0815757  95.2856671  64.8299683  69.3668667  95.1993259  68.8685436
  70.1886111  94.7973446  68.5868118  69.3631070  95.0961493  69.8201552
  63.1325270  94.7477302  71.0246147  63.1969703  95.2097710  71.8604319
  62.4236194  94.1174667  71.1528457  77.4574660  91.5432008  65.2170408
  76.7038368  90.9739406  65.0614412  77.5922201  91.5094672  66.1641042
  62.8473288  96.4145410  60.8925127  62.7118963  97.2596946  61.3209975
  63.3883101  96.6164687  60.1291061  58.1097570  97.0486604  63.5475805
  58.2864198  97.9704569  63.3596789  58.9054404  96.7345023  63.9770185
  64.4741764  97.0368976  75.0225469  64.0305619  96.2505355  74.7046374
  65.1358978  97.2248127  74.3569360  59.2328886  98.5664778  69.5486148
  59.7836311  98.4381841  68.7763142  58.3940362  98.8659667  69.1981040
  66.5723002  97.3171776  73.0506870  66.5541478  98.1380657  72.5587140
  67.4942923  97.1925851  73.2757012  63.0296057  94.8315906  73.8930379
  63.5624393  94.0704194  73.6629687  62.5010138  94.5389558  74.6354533
  66.1616034  89.9284583  57.9296456  65.6462658  90.6989187  58.1684843
  65.8893343  89.2549719  58.5529517  71.1350308  92.6816937  59.8649629
  70.3579751  92.3428097  59.4204791  71.8141789  92.6869561  59.1904594
  64.3948769  93.9601898  61.4049191  63.8670131  93.2254658  61.0922428
  63.8936272  94.7376575  61.1589159  69.3741615  92.1550919  66.5216237
  68.7165290  92.8450180  66.6096366  70.1782015  92.5447351  66.8650223
  68.1847074  90.5095291  64.5720179  68.6978956  91.1425283  65.0741889
  68.8348298  89.9096487  64.2063539  65.4469448 100.4879616  57.3280850
  64.7731147 100.7911312  57.9365808  65.8335270 101.2908696  56.9786307
  68.9508870  95.4901293  62.6999322  68.4971197  94.6492203  62.7564512
  68.3202837  96.1262691  63.0374102  67.8941790  86.4193279  63.9299989
  67.1564547  85.9070665  64.2610232  68.1468563  85.9793661  63.1183266
  67.3941810  97.3277790  63.6349140  67.6864784  97.8882847  62.9161505
  67.9040430  97.6206351  64.3902299  62.3575435  98.1058141  64.7242593
  62.3151614  98.3318987  63.7951125  63.2738134  97.8721515  64.8728394
  71.5338806  91.6960644  62.3272551  71.3956704  91.8862240  61.3993740
  71.1775024  92.4580027  62.7840602  71.5608185  93.7637171  67.3383823
  71.9944692  93.6712460  68.1866877  72.2739766  93.7394672  66.7003839
  65.2936080  97.3639265  68.8716923  65.3473102  97.9330202  69.6394639
  64.4250861  97.5341150  68.5070960  72.4223735  93.8060872  69.8716708
  72.6159625  94.7106682  70.1175983  72.3224353  93.3468291  70.7055293
  67.4838843  93.9567614  75.4457589  67.3324350  93.7278166  74.5287672
  67.4743523  94.9138216  75.4588934  63.0512512  95.5550192  68.2002393
  62.9123597  95.1868976  69.0728331  62.2627108  96.0697831  68.0286350
  63.6460664 100.6559288  59.5427929  63.8212419 100.1847331  60.3573552
  62.9593452 101.2825054  59.7709190  64.6017727  94.9331794  65.5891230
  64.2667559  94.8932564  66.4848880  64.1021672  94.2676510  65.1161641
  69.1931050  96.9886737  73.5234070  69.1343596  96.3045957  72.8564654
  69.5950568  97.7305727  73.0714696  58.2121749 103.8048651  66.3167789
  58.4518347 104.4367175  66.9946808  57.3690945 103.4536691  66.6033149
  69.1948457  94.9526321  71.7548050  68.3075236  94.6152243  71.8774449
  69.7647008  94.2209352  71.9916816  62.7249611  99.6127773  68.7209293
  62.6519782 100.4182745  69.2328598  62.2827004  99.8119739  67.8957315
  62.5139390  98.8499543  62.2312115  61.7306912  99.3921224  62.3250339
  63.2132136  99.3673523  62.6306356  73.6765798  90.3634538  66.5164612
  73.6655674  91.2459254  66.1458545  72.8083177  90.0106089  66.3219149
  65.1848294  99.5114607  70.8767452  65.8976266 100.1462072  70.8043353
  64.6938323  99.6078473  70.0607454  66.9065821  93.4165860  62.4484744
  65.9722100  93.5367322  62.2789448  67.0842490  92.5138327  62.1844754
  70.2938372  89.2583179  62.9834778  70.7598825  90.0911171  62.9095081
  70.7445873  88.7928161  63.6880036  60.2360208  97.2609051  71.6973023
  60.9369667  97.8945534  71.8502417  59.7655323  97.6023782  70.9368662
  68.3614604  95.6027001  59.9820930  68.6374448  95.4883595  60.8914804
  67.4919102  95.2044485  59.9433103  64.9968668  99.8513351  63.6253744
  65.1791062  99.0335007  64.0881496  65.8201654 100.0681044  63.1878633
  65.3310833  98.7781537  60.8868792  65.8598600  98.2673991  60.2738954
  65.5939053  98.4624067  61.7514325  64.0849067  90.5573469  76.0091610
  63.4089704  90.4567599  76.6793986  64.9076701  90.4012683  76.4727608
  55.8327926  96.7945406  68.6304126  56.4181363  96.0489094  68.7632030
  55.6352764  97.1049363  69.5140789  58.6866581  99.8296653  63.6466568
  58.0176956 100.3142781  63.1630608  58.5479451 100.0765874  64.5609946
  62.8271850 101.8640397  70.2449226  63.3790158 102.0272018  71.0098312
  63.1678043 102.4544835  69.5729251  67.6782724  96.6901654  76.0997881
  68.2222628  97.3031613  75.6052836  67.0969569  97.2481233  76.6164894
  65.9640237  99.8122372  67.2312908  65.8391376  99.0112112  66.7223854
  66.6219328 100.3068566  66.7426878  68.0275145  97.6131392  68.8592459
  67.0805481  97.4936744  68.7870785  68.3757918  96.7253890  68.9418720
  65.0321579  97.4084109  65.0596811  64.8846541  96.4800816  65.2404381
  65.8575072  97.4304199  64.5753886  68.6355700  98.2312667  66.1461684
  69.5602248  98.0255529  66.0086135  68.4671004  97.9829068  67.0551025
  68.4251017  98.7498335  61.5023775  68.5987894  98.1844757  60.7497627
  68.9179908  99.5499230  61.3203265  74.2790408  91.5134758  63.1214075
  74.7221554  90.7642083  62.7233198  73.4016918  91.5044894  62.7387807
  69.4126189  98.0665099  58.6020673  70.1077094  98.6871792  58.8207988
  69.7549339  97.2160450  58.8773051  71.3117612  95.5164805  60.1308004
  71.8368936  95.8552077  59.4057324  71.2239965  94.5811820  59.9471139
  62.9737661  99.4298878  72.2597881  63.2824787  99.1848025  73.1320580
  63.7713143  99.6345517  71.7716751  62.9958273 101.5836788  64.4903257
  62.5563263 101.0913167  65.1836114  63.7466390 101.0409756  64.2495332
  55.4750612  97.7748329  64.4927885  56.3008632  97.4752101  64.1126529
  55.1244664  97.0055951  64.9417674  60.4432145  97.1274797  66.5625559
  59.8212154  96.4645502  66.2627787  61.1137012  97.1535929  65.8799207
  71.0011518  96.1497708  75.4359202  70.2107062  96.1321847  74.8963701
  70.7644873  96.6886002  76.1908239  71.1209393  92.9990175  72.7491931
  71.1707398  92.8340182  73.6907453  71.0123317  92.1317434  72.3589811
  60.0045652  95.6778720  60.0384019  60.1533772  96.3614185  59.3850692
  60.8112096  95.6583810  60.5533475  72.6227590  95.4187116  72.9933952
  72.3312399  95.7817097  73.8297413  72.0099721  94.7054125  72.8147284
  73.8223273  92.9839996  65.5136522  74.6570164  93.4229800  65.6774083
  73.9582401  92.5078649  64.6944768  70.8714778  90.5419731  71.4614010
  71.3468900  90.7347377  70.6532861  69.9480344  90.5978917  71.2157394
  63.5041058  98.1726851  57.5095767  62.9315025  98.7917038  57.0566239
  64.0773851  98.7226213  58.0435689  66.7238317  98.4564001  58.6404349
  67.6568991  98.3909563  58.8437225  66.6361530  99.2920268  58.1818882
  69.3526334  97.7729871  55.6008297  69.2739966  97.4389735  56.4944055
  70.1736001  98.2651639  55.5999769  72.0504525  90.6391611  68.8084615
  72.0180845  89.7007611  68.9944299  72.6605149  90.7175647  68.0750440
  77.8681075  91.7007617  67.9490652  78.5984464  91.4392906  68.5098355
  77.2588021  90.9636339  67.9892720  75.9496372  89.8415480  68.5465103
  75.2229536  89.7071445  67.9381595  75.5343659  90.1492309  69.3521821
  63.7726549  93.5605410  76.3112476  64.6929558  93.7384009  76.5052523
  63.7376132  92.6161455  76.1592176  61.6416486  87.0439650  78.3438006
  61.5413213  87.9934007  78.2750097  61.4238029  86.7157889  77.4714076
  71.1301609  85.3499713  64.8424594  71.9061999  85.8396166  65.1149211
  70.4049743  85.7757767  65.2996464  73.5674167  86.0627332  65.8998535
  74.1618658  85.8223068  65.1891843  73.6400751  85.3434463  66.5272071
  55.7871323  99.9060943  66.2141700  55.6525791  99.1461344  65.6479698
  55.3703385 100.6301843  65.7470489  66.9230286  95.0897867  55.2218275
  67.6266136  95.2947869  55.8375931  66.1992935  95.6574629  55.4867359
  67.7528096  90.8407728  61.3420545  67.6963298  91.2976279  60.5028178
  68.3056439  90.0798413  61.1643388  71.5632902  86.6297460  62.1670665
  71.3069836  86.2294096  62.9978872  70.9385770  87.3441254  62.0420804
  75.8745240  89.3693533  64.6741956  75.3144798  89.4386722  65.4473518
  75.2688743  89.1934518  63.9541452  58.9440449 100.8030260  66.4260142
  58.8272833 101.7475693  66.3238833  58.1232895 100.5003822  66.8145942
  68.8316983  95.5280396  57.2716735  69.6662587  95.0961594  57.0894210
  68.6701326  95.3562410  58.1993630  68.4862875  92.0312509  58.6373074
  68.4311679  91.8656781  57.6961518  67.8608931  92.7388542  58.7935264
  65.8008783  94.3361421  77.9626637  66.6699942  94.5102073  77.6013272
  65.3215534  95.1555838  77.8402366  59.9694963 101.4558522  69.6416071
  60.8722210 101.4882132  69.9582566  59.7432333 100.5258973  69.6562407
  61.7248565 100.2089509  66.3026149  60.7744196 100.2091370  66.1890522
  62.0281051  99.4622243  65.7862184  77.4601258 106.0450047  67.3671912
  78.0979668 105.9256794  66.6635252  77.3422101 106.9930891  67.4259864
  74.2690965 105.9977475  67.3033436  73.9309476 105.8818540  66.4153971
  75.1380733 105.5968640  67.2834443  70.1277780 107.8512952  63.2930327
  69.5642645 107.7602889  62.5246615  70.0130175 107.0312856  63.7732820
  74.7510748 107.1512327  73.2619642  74.7399388 106.7565125  72.3900146
  74.9131387 106.4178400  73.8553413  67.6742212 109.3464143  66.1314548
  68.4663504 109.0054968  65.7160847  67.9138862 109.4559118  67.0516701
  69.6332966 108.6073056  59.0031927  70.4063842 108.0602044  58.8644802
  69.9858365 109.4717306  59.2146388  71.4718009 109.9349439  72.2098826
  71.1807875 110.8395070  72.0945492  72.1074993 109.9765966  72.9242896
  72.3974216 107.3126287  68.8000186  72.9937788 107.0882310  68.0857149
  72.4549187 106.5711033  69.4025634  71.9699244 104.7665723  56.6350377
  72.2224765 104.2447244  55.8733840  71.0323803 104.6031868  56.7377060
  77.0142527 103.7701501  64.4425120  77.8005616 103.3520924  64.0915537
  77.2781231 104.6747593  64.6106768  82.4150954 103.7076734  65.3458098
  83.1476126 103.1375951  65.5795928  81.6590310 103.3198335  65.7864604
  71.6895533 106.6693829  58.8374752  71.5731791 105.9938732  59.5055836
  71.7997793 106.1826202  58.0206905  74.0327074 106.1303976  62.5421441
  73.6685281 105.6034597  63.2534362  74.8894190 105.7402445  62.3687926
  79.9376374  97.4198308  69.8052707  79.6059699  98.2893719  69.5813922
  79.3421988  97.1034592  70.4846737  73.6732561 101.1593875  57.5382789
  73.8406963 102.0274112  57.9053260  73.4829730 101.3221157  56.6144079
  69.8820375 106.0724651  65.2385324  68.9570872 105.9400865  65.4463016
  70.1304789 106.8518870  65.7355267  79.8305038 102.1393394  66.8846057
  78.9221915 102.0708803  66.5904818  79.7792633 102.6165339  67.7127882
  73.6521782 103.6151533  58.5229456  73.5321407 104.0608584  59.3614936
  72.9574370 103.9636850  57.9642994  67.2429186 105.7157925  66.0729113
  67.3721568 105.9692404  66.9868525  66.5626638 106.3085633  65.7533768
  73.9045903 103.5583040  74.8280954  73.1279237 104.1176960  74.8183819
  74.5436466 104.0439823  75.3495824  81.6966684 100.3409833  68.6623931
  81.0541064 100.6342366  68.0163726  81.1921613 100.2262753  69.4677128
  79.3506848 104.0873006  59.3509790  80.2624704 104.3200393  59.1757488
  78.8416495 104.6710050  58.7884869  72.1592276 106.3668493  74.3898921
  72.9006960 106.9053537  74.1133745  71.4529261 106.9934782  74.5470473
  77.6347615 108.5097634  72.9871083  78.0430971 108.0680044  72.2425715
  76.9124877 107.9350261  73.2405276  73.9878685 103.4470241  70.3604640
  74.8339881 103.8709654  70.5039289  73.9277323 102.7903865  71.0543203
  77.1378131 101.1074609  72.0185813  76.8939063 101.8616669  71.4820089
  77.4138061 101.4859957  72.8533060  76.6942822 100.2631042  67.5999651
  75.8327301 100.5612296  67.8916389  76.7205257 100.4801441  66.6680684
  73.5104392 108.8073233  64.0073457  73.9742737 109.0860936  63.2178079
  73.2461190 107.9056677  63.8246547  70.4028473 108.3544714  66.9453220
  70.9729830 108.7831982  66.3070705  70.9936585 108.0727299  67.6437406
  72.4473278 104.9296385  60.8163022  73.1497321 105.3817429  61.2836948
  72.1153906 104.2880204  61.4442915  70.8953639 103.5208142  75.1914231
  70.2652300 104.2024422  75.4249628  70.7889727 103.4091223  74.2467370
  66.1898612 103.1879938  66.1180155  65.3997666 103.4437466  65.6420266
  66.6809859 104.0028275  66.2232196  68.1413357 103.5524517  63.0763632
  67.3444521 103.6643211  63.5947128  67.9138949 103.8911169  62.2104523
  73.9719025 110.0769220  71.0246147  74.0363457 110.5389627  71.8604319
  73.2629949 109.4466585  71.1528457  64.4736315 103.4410428  68.5495146
  64.7244353 104.3257438  68.8152722  65.0095863 103.2615030  67.7770238
  70.1734382  97.8228907  77.5539482  69.7801328  97.2695106  78.2287127
  70.9900523  98.1339486  77.9446000  67.1396440 109.2612766  61.4653052
  67.6520961 110.0556016  61.6158617  67.7919153 108.5639056  61.3986654
  68.9491325 112.3778522  63.5475805  69.1257953 113.2996487  63.3596789
  69.7448158 112.0636941  63.9770185  73.0902343  99.2386786  75.1459739
  73.8312057  99.8393940  75.0664201  73.3220266  98.4964424  74.5877781
  68.2343681 104.4243154  73.4237969  68.1197196 103.5228411  73.7245067
  67.3788199 104.6706850  73.0722785  73.8689811 110.1607823  73.8930379
  74.4018148 109.3996112  73.6629687  73.3403892 109.8681475  74.6354533
  77.0359506  95.2667889  69.4224021  76.6923776  96.1569531  69.3463131
  77.4038469  95.0769547  68.5593606  65.1045357 107.5901420  62.2412623
  65.9420579 107.9998428  62.0246330  65.2823624 106.6500862  62.2112817
  77.0009789 105.2576500  57.9296456  76.4856412 106.0281105  58.1684843
  76.7287097 104.5841637  58.5529517  74.5856900 100.1026201  62.9881694
  73.7298496  99.7133052  62.8087333  74.9983852 100.1818162  62.1281480
  76.1156046  97.6372545  67.3873254  75.6120842  97.6002680  66.5741059
  76.4086653  98.5465287  67.4469910  72.3598932  97.7211274  66.3939436
  73.2251929  97.5254083  66.0345325  72.4276441  97.4921626  67.3208792
  76.7896092 103.1303593  59.7556237  76.4846228 103.4449742  60.6066380
  77.7426534 103.2085012  59.7983570  75.2342524 109.2893816  61.4049191
  74.7063885 108.5546575  61.0922428  74.7330027 110.0668492  61.1589159
  69.9661251  99.9513482  63.7655802  70.5405003  99.7288664  63.0328995
  70.5532234 100.0202177  64.5184404  79.0240829 105.8387209  64.5720179
  79.5372710 106.4717201  65.0741889  79.6742053 105.2388405  64.2063539
  70.2930839 101.9817943  57.7851688  69.4568151 102.3192630  58.1060962
  70.1535608 101.8466923  56.8478825  72.2683919  96.8254731  62.4930872
  71.6148332  96.5103748  61.8687487  72.2264393  96.2030472  63.2190695
  73.3795124 107.1074026  54.4084164  72.4722186 106.8763280  54.6075313
  73.8766156 106.3111645  54.5958145  75.5021660 103.3136665  66.8178519
  74.5844221 103.5351612  66.6600207  75.9181803 103.3882975  65.9590227
  76.2856707 104.7128080  61.9481200  77.0328526 105.2249478  61.6388322
  76.5548297 104.3912133  62.8085593  74.5583357 107.2086621  58.9308154
  73.6494577 106.9245654  59.0280624  74.5878441 107.6285700  58.0711461
  78.7335544 101.7485197  63.9299989  77.9958301 101.2362583  64.2610232
  78.9862318 101.3085578  63.1183266  78.8347172  94.5261449  64.5241758
  79.1406049  93.6658812  64.2367673  79.5599777  95.1179069  64.3240752
  65.1271528 104.9292135  62.9123356  64.9295928 104.3361496  62.1874423
  64.5718192 104.6244345  63.6299295  73.1068252 104.8215242  65.0317949
  73.1616861 103.8689078  64.9560426  72.2959454 104.9774681  65.5159248
  74.2559445 108.7495365  56.2696233  73.8178875 108.0331224  55.8101870
  74.9969886 108.9771480  55.7081324  71.0460611 103.4392301  62.7908328
  70.2328477 103.7386472  63.1973520  71.5419606 103.0447990  63.5082810
  76.6434823 103.9034126  71.6223222  76.9984211 104.1305599  72.4817688
  77.2906954 104.2352503  71.0000477  70.5374686 101.0110657  68.4069563
  71.1774066 100.8699416  67.7092526  69.7052217 100.7245170  68.0308165
  71.3134990 110.3113087  64.5204556  72.1075589 109.8163407  64.3187131
  70.6026682 109.7830950  64.1572261  67.6217754 104.4556169  60.5964308
  66.6915342 104.3940625  60.8134270  67.7175226 103.9332122  59.8000950
  67.5403303 100.9810982  63.1842550  67.8010120 101.8956315  63.0751710
  68.3620475 100.5135424  63.3339163  69.0128228 102.3948739  70.3541374
  69.6851281 102.1866101  69.7054023  68.1858014 102.1970825  69.9146607
  74.9153800  99.0210680  72.3707035  74.2681715  99.7200630  72.2771512
  75.6854815  99.4546824  72.7383284  75.0917934 106.8591445  70.4303855
  76.0209994 107.0102605  70.2572822  74.6708964 106.9475466  69.5752502
  73.8906266 110.8842109  68.2002393  73.7517352 110.5160894  69.0728331
  73.1020862 111.3989749  68.0286350  75.4411481 110.2623712  65.5891230
  75.1061314 110.2224482  66.4848880  74.9415427 109.5968428  65.1161641
  69.4155725 105.6691342  71.1143812  69.2775523 104.9371581  71.7155351
  70.3260649 105.5800242  70.8327999  78.3770673 107.6079746  55.8628290
  77.7599844 106.8826575  55.7661343  77.9087161 108.3689107  55.5195364
  72.0438026 105.3811301  70.6027491  72.7537644 104.7404494  70.5614110
  72.0007334 105.6324196  71.5253672  70.7566960 102.3676519  72.4223131
  70.2204317 101.9167258  73.0744727  70.1683668 102.5022428  71.6793595
  70.1669219 101.8265171  54.9849594  69.2898685 101.7053971  54.6211841
  70.6426972 101.0351249  54.7328483  61.6871359 106.6142330  65.0791102
  62.3742399 106.3004060  64.4912117  61.5319488 107.5183695  64.8058353
  66.4906081 101.5032527  69.5076125  66.4064270 100.8958197  68.7726535
  65.6688787 101.9941545  69.5085622  76.6629795  99.9886090  64.8746320
  77.1598494  99.2356053  64.5547391  75.8916776 100.0250407  64.3089530
  73.2464764 102.1303473  64.6018005  72.8762551 101.5774514  65.2898910
  73.7423856 101.5261607  64.0493005  81.1332127 104.5875097  62.9834778
  81.5992579 105.4203089  62.9095081  81.5839627 104.1220079  63.6880036
  79.1048790  96.9555684  67.0225679  78.1911870  97.1859911  67.1907886
  79.5341891  97.0394128  67.8739712  78.8755248 105.1445576  69.5225573
  78.2226698 105.3921483  68.8678026  79.2535628 104.3309714  69.1888050
  74.9242821 105.8865387  76.0091610  74.2483458 105.7859516  76.6793986
  75.7470455 105.7304601  76.4727608  66.6721680 112.1237324  68.6304126
  67.2575117 111.3781011  68.7632030  66.4746519 112.4341280  69.5140789
  61.2639335 104.6942924  67.3508569  61.3023435 104.1606514  68.1445687
  60.7579628 104.1678129  66.7319546  68.6430097  99.5407464  70.8471111
  68.7071424 100.4022295  70.4348509  68.5797218  98.9281466  70.1143469
  68.1182370 101.6130597  74.4944145  68.7454409 101.2307674  75.1081670
  67.2610289 101.3944799  74.8599838  64.8947913 103.4207026  60.4262500
  65.1901354 102.5117704  60.3729554  63.9935948 103.3994765  60.1043502
  68.4242160 101.4963022  66.4090049  67.7028745 102.1098990  66.2697522
  69.2135415 102.0320787  66.3306695  71.2268473  98.8317449  72.6830700
  71.7502875  99.0779746  73.4457010  71.0080806  99.6637484  72.2633838
  66.6235754 101.1021124  60.5501825  66.2948460 100.2218502  60.3676931
  66.9775125 101.0468792  61.4378214  69.7377577 101.3894093  60.9177303
  70.0773650 101.9180015  60.1955911  70.1849698 101.7274499  61.6935869
  72.4321018  99.7731144  70.3680371  72.0917839  98.9738957  70.7701051
  71.7260024 100.0732855  69.7957204  73.0837490  96.8580456  68.8207694
  73.9063559  96.3840935  68.6986584  73.3275554  97.6370940  69.3206380
  71.7245725  99.8868715  59.1170596  72.4454087 100.2649968  58.6134313
  71.1011029 100.6057592  59.2205574  75.8676847 100.5913864  60.0528928
  76.0840462 101.4738502  59.7517756  75.3870915 100.2000077  59.3234570
  70.6076069 103.5499577  66.6299673  70.4620650 103.8639880  67.5223954
  70.1301272 104.1684477  66.0770571  72.4672452 100.5402125  66.6780562
  72.4534020  99.6443218  66.3412860  73.1844880 100.5472789  67.3118848
  74.3198582 100.9739465  68.7233690  74.0616360 101.8956536  68.7218020
  73.7883623 100.5769900  69.4134154  65.0821731 106.0904922  69.5687334
  64.5375199 106.8664730  69.7007608  65.9601081 106.4375726  69.4106455
  71.8709348  99.4216505  61.9468132  71.9925259  98.4933152  62.1459020
  71.5811390  99.4355191  61.0346448  74.7400538  97.1071416  65.0834852
  74.7622235  97.1710749  64.1286832  75.1568597  96.2675924  65.2775358
  65.8687753 105.2174818  72.4617491  65.1269489 105.3657453  73.0482121
  65.5480497 105.4783083  71.5984240  71.2825900 112.4566715  66.5625559
  70.6605909 111.7937420  66.2627787  71.9530767 112.4827847  65.8799207
  64.5152972 111.0226573  65.4516819  63.6784880 110.5948747  65.2700820
  64.4876617 111.2159016  66.3887610  71.3550427 100.9348503  76.1558065
  71.4038583 101.8110626  75.7735834  71.8972941 100.3925896  75.5829708
  70.8439407 111.0070638  60.0384019  70.9927527 111.6906102  59.3850692
  71.6505850 110.9875728  60.5533475  79.2506910 104.3113020  74.0651237
  80.1516773 104.1719485  73.7735235  79.3254885 104.4767475  75.0049415
  73.5849716 101.6879875  72.9104424  72.7153025 101.9813441  72.6387012
  73.8209196 102.2720320  73.6311687  68.5992040 107.0335816  61.0445088
  68.3538081 106.1298146  61.2425298  68.7687954 107.0352966  60.1024566
  76.2888749  97.9059492  70.4269844  76.8070693  98.6420519  70.1016332
  75.9343882  98.2123485  71.2616603  67.8687687 102.7664173  58.5431250
  67.1756932 102.8408528  57.8871286  67.6239439 102.0024517  59.0652767
  76.5401344  94.3259775  65.9470741  76.8203097  93.6582964  66.5731167
  77.3251951  94.5188870  65.4345404  80.4110202 102.7477409  69.6942316
  81.3627625 102.8475506  69.7154540  80.2413652 101.9555677  70.2040400
  78.4324581  99.8332992  69.8801717  77.8374514 100.1138005  69.1848205
  78.1474278 100.3226893  70.6518458  74.7281611 104.8379581  54.8511819
  75.6740715 104.7085789  54.9200237  74.3495856 104.0994243  55.3281247
  83.0392768 102.7594572  68.8542898  82.5231817 101.9753028  68.6672827
  83.9232717 102.4313288  69.0189418  80.7003495  96.5035587  64.8138711
  80.5028316  96.1950676  65.6982043  81.3103201  97.2297226  64.9436641
  72.9124528 102.7629558  54.7866705  72.0055983 102.4662670  54.8629418
  73.1900509 102.4659376  53.9200991  63.8302468 104.0835921  65.2365751
  63.5105252 103.2301229  64.9440125  63.2835896 104.2984499  65.9923718
  67.6082376 106.7998362  68.9535257  67.8268385 107.7315470  68.9723291
  68.0208149 106.4406336  69.7390061  74.5286593  97.3066447  60.9410946
  73.7187322  96.9613532  61.3166192  75.2171010  96.9973991  61.5298557
  76.4577142  96.3844494  62.5635242  77.0108180  96.8039948  63.2225266
  76.6947228  95.4580242  62.6058198  72.4810241 102.3731568  78.3438006
  72.3806968 103.3225925  78.2750097  72.2631783 102.0449807  77.4714076
  71.6823312  99.6216493  54.9278684  72.5442476  99.9471391  55.1874501
  71.8673657  98.8347989  54.4151750  63.6990728 107.7038833  67.2058873
  63.0054200 107.2892785  66.6928827  64.4463719 107.7459369  66.6092291
  79.8355949  98.4945019  62.0713907  79.2554618  99.1529823  61.6891959
  79.5691882  97.6722364  61.6601324  78.2859515  97.8950077  64.2735227
  78.7859294  98.0066612  63.4649546  78.9295123  97.5911130  64.9136036
  72.3441511 105.8028707  77.1603068  71.8608593 106.6029067  77.3666957
  72.4302450 105.8136652  76.2070512  65.6127471 107.6357086  65.0824887
  65.5898159 107.7344774  64.1306771  65.9228107 108.4822237  65.4042054
  68.2714849 109.6933241  69.1971502  69.2258102 109.6617184  69.1301433
  68.0727372 109.2323865  70.0121728  68.8614231 108.2634357  71.7642300
  69.6807120 108.7578436  71.7877137  69.1351038 107.3466326  71.7359867
  78.6180827 100.6545110  61.1270255  77.7306682 100.9394760  60.9090450
  79.0334816 100.4938873  60.2797532  81.9695363 100.6791631  64.8424594
  82.7455753 101.1688083  65.1149211  81.2443497 101.1049685  65.2996464
  84.4067922 101.3919250  65.8998535  85.0012412 101.1514986  65.1891843
  84.4794505 100.6726381  66.5272071  78.5921851 106.1699646  61.3420545
  78.5357052 106.6268197  60.5028178  79.1450193 105.4090330  61.1643388
  82.4026657 101.9589378  62.1670665  82.1463591 101.5586013  62.9978872
  81.7779525 102.6733171  62.0420804  64.1149145 102.5972491  72.4634497
  64.7608009 102.0871445  72.9521722  63.9066296 103.3341173  73.0377922
  72.6352755  96.8612536  58.2158393  72.6231425  97.8054376  58.3726664
  73.5276177  96.6782681  57.9217854  76.4504875  93.4555313  62.4704330
  75.6837271  92.9013799  62.6161012  76.8615580  93.5277181  63.3318481
  68.4546636  99.7440108  76.5609511  69.3178097  99.3876913  76.7712835
  67.8812047  99.4054003  77.2484915  23.2632487   6.4052581  54.0917218
  23.9010897   6.2859329  53.3880559  23.1453330   7.3533425  54.1505171
  20.0722193   6.3580009  54.0278743  19.7340705   6.2421074  53.1399278
  20.9411962   5.9571174  54.0079749  15.9309009   8.2115486  50.0175634
  15.3673874   8.1205423  49.2491922  15.8161404   7.3915390  50.4978127
  20.5541976   7.5114861  59.9864949  20.5430617   7.1167659  59.1145452
  20.7162616   6.7780934  60.5798720  13.4773441   9.7066677  52.8559855
  14.2694733   9.3657502  52.4406154  13.7170091   9.8161652  53.7762008
  21.5108568  11.8786453  45.3290099  20.8596548  12.4640534  44.9424113
  22.3052931  12.4092648  45.3885136  15.4364195   8.9675591  45.7277233
  16.2095071   8.4204578  45.5890109  15.7889594   9.8319840  45.9391695
  17.2749238  10.2951973  58.9344133  16.9839104  11.1997604  58.8190799
  17.9106222  10.3368501  59.6488202  18.2005444   7.6728821  55.5245492
  18.7969017   7.4484844  54.8102455  18.2580416   6.9313567  56.1270940
  17.7730473   5.1268257  43.3595683  18.0255993   4.6049778  42.5979146
  16.8355032   4.9634402  43.4622367  22.8173756   4.1304035  51.1670426
  23.6036845   3.7123458  50.8160843  23.0812460   5.0350127  51.3352075
  22.9883833   9.5676885  45.8659083  22.3529666   9.6411512  46.5779988
  22.6581239  10.1570484  45.1878163  28.2182183   4.0679268  52.0703405
  28.9507355   3.4978485  52.3041234  27.4621538   3.6800869  52.5109911
  17.4926762   7.0296363  45.5620058  17.3763020   6.3541266  46.2301143
  17.6029021   6.5428737  44.7452211  19.8358302   6.4906510  49.2666747
  19.4716510   5.9637131  49.9779669  20.6925418   6.1004979  49.0933233
  22.2339123   9.9813388  55.9293926  21.9339846  10.8838427  55.8209734
  21.8890182   9.7145572  56.7815079  15.6851604   6.4327185  51.9630631
  14.7602101   6.3003399  52.1708323  15.9336017   7.2121405  52.4600573
  25.6336266   2.4995929  53.6091364  24.7253144   2.4311337  53.3150125
  25.5823862   2.9767874  54.4373189  19.4553010   3.9754067  45.2474763
  19.3352636   4.4211118  46.0860243  18.7605599   4.3239385  44.6888301
  17.2159902  16.7457709  48.8964894  17.1383932  17.6965534  48.9753375
  16.6121546  16.4003581  49.5539820  19.7077132   3.9185574  61.5526261
  18.9310466   4.4779494  61.5429126  20.3467695   4.4042357  62.0741131
  27.4997913   0.7012367  55.3869238  26.8572293   0.9944900  54.7409032
  26.9952841   0.5865287  56.1922434  25.1538076   4.4475540  46.0755097
  26.0655933   4.6802927  45.9002794  24.6447724   5.0312584  45.5130175
  17.9623505   6.7271028  61.1144228  18.7038189   7.2656072  60.8379052
  17.2560490   7.3537316  61.2715780  23.4378844   8.8700168  59.7116389
  23.8462200   8.4282579  58.9671022  22.7156106   8.2952796  59.9650582
  19.7909914   3.8072775  57.0849946  20.6371109   4.2312188  57.2284595
  19.7308552   3.1506399  57.7788509  23.7607659   9.4301359  53.4668678
  23.1316521   9.5947073  52.7644746  23.3733321   9.8442968  54.2379642
  27.6396891  10.3655796  50.8213042  26.9547929  10.7454698  50.2710075
  27.7240740  10.9751123  51.5544990  22.9409360   1.4677143  58.7431120
  22.6970291   2.2219204  58.2065396  23.2169290   1.8462491  59.5778367
  24.8947822   8.0115756  57.4208386  25.1064718   8.6547515  56.7442767
  24.8477571   7.1778072  56.9530316  22.4974051   0.6233576  54.3244958
  21.6358530   0.9214830  54.6161695  22.5236486   0.8403975  53.3925990
  19.3135621   9.1675767  50.7318763  19.7773966   9.4463470  49.9423386
  19.0492419   8.2659211  50.5491854  16.2059702   8.7147248  53.6698527
  16.7761059   9.1434517  53.0316011  16.7967814   8.4329833  54.3682712
  18.2504507   5.2898919  47.5408329  18.9528550   5.7419963  48.0082255
  17.9185135   4.6482738  48.1688222  26.0093650  10.8887711  55.5930743
  26.8311094  10.4867898  55.3113425  26.0056053  10.7855945  56.5446859
  19.7750254  10.4371754  57.7491453  19.8394686  10.8992161  58.5849625
  19.0661178   9.8069119  57.8773763  34.0999643   7.2326459  51.9415714
  33.3463352   6.6633857  51.7859719  34.2347185   7.1989124  52.8886349
  19.4898271  12.1039862  47.6170434  19.3543946  12.9491397  48.0455282
  20.0308084  12.3059139  46.8536368  12.9427669   9.6215300  48.1898359
  13.4552189  10.4158550  48.3403924  13.5950382   8.9241590  48.1231960
  14.7522553  12.7381056  50.2721112  14.9289182  13.6599021  50.0842096
  15.5479387  12.4239475  50.7015492  21.1166748  12.7263428  61.7470776
  20.6730602  11.9399807  61.4291680  21.7783961  12.9142579  61.0814667
  15.8753869  14.2559230  56.2731454  16.4261294  14.1276293  55.5008448
  15.0365345  14.5554119  55.9226347  23.2147986  13.0066228  59.7752177
  23.1966461  13.8275109  59.2832446  24.1367906  12.8820303  60.0002318
  19.6721040  10.5210358  60.6175685  20.2049377   9.7598646  60.3874993
  19.1435121  10.2284009  61.3599840  22.8041018   5.6179035  44.6541762
  22.2887641   6.3883639  44.8930150  22.5318326   4.9444171  45.2774824
  27.7775292   8.3711389  46.5894936  27.0004735   8.0322549  46.1450098
  28.4566773   8.3764013  45.9149901  22.5927321   3.4906127  46.4801543
  22.2877456   3.8052276  47.3311687  23.5457763   3.5687547  46.5228876
  21.0373753   9.6496350  48.1294497  20.5095114   8.9149110  47.8167735
  20.5361255  10.4271026  47.8834466  26.0166599   7.8445371  53.2461544
  25.3590273   8.5344632  53.3341672  26.8206998   8.2341803  53.5895530
  24.8272057   6.1989743  51.2965486  25.3403939   6.8319735  51.7987195
  25.4773281   5.5990939  50.9308846  19.1826353   7.4676560  41.1329470
  18.2753415   7.2365814  41.3320619  19.6797385   6.6714180  41.3203452
  22.0894432  16.1774068  44.0526157  21.4156130  16.4805764  44.6611114
  22.4760254  16.9803148  43.7031614  21.3052888   3.6739199  53.5423826
  20.3875450   3.8954146  53.3845514  21.7213032   3.7485509  52.6835533
  22.0887936   5.0730615  48.6726506  22.8359755   5.5852012  48.3633628
  22.3579526   4.7514667  49.5330900  20.3614586   7.5689155  45.6553461
  19.4525806   7.2848188  45.7525930  20.3909670   7.9888234  44.7956767
  25.5933854  11.1795745  49.4244628  25.1396181  10.3386655  49.4809819
  24.9627820  11.8157143  49.7619408  24.5366773   2.1087731  50.6545296
  23.7989530   1.5965117  50.9855538  24.7893547   1.6688112  49.8428572
  24.0366793  13.0172241  50.3594446  24.3289767  13.5777299  49.6406812
  24.5465414  13.3100802  51.1147605  18.9099480   5.1817776  51.7563256
  18.9648090   4.2291612  51.6805733  18.0990682   5.3377215  52.2404554
  20.0590674   9.1097899  42.9941539  19.6210104   8.3933758  42.5347177
  20.8001115   9.3374014  42.4326631  19.0000418  13.7952593  51.4487900
  18.9576597  14.0213439  50.5196432  19.9163117  13.5615967  51.5973701
  22.4466052   4.2636660  58.3468529  22.8015440   4.4908133  59.2062994
  23.0938183   4.5955037  57.7245784  28.1763789   7.3855096  49.0517858
  28.0381687   7.5756692  48.1239047  27.8200008   8.1474479  49.5085909
  28.2033168   9.4531623  54.0629129  28.6369675   9.3606912  54.9112183
  28.9164749   9.4289123  53.4249145  17.1166219  10.6715622  51.2449862
  17.9106817  10.1765942  51.0432437  16.4057911  10.1433485  50.8817568
  29.0648718   9.4955324  56.5962015  29.2584608  10.4001134  56.8421290
  28.9649336   9.0362743  57.4300600  24.1263827   9.6462066  62.1702895
  23.9749333   9.4172618  61.2532979  24.1168506  10.6032668  62.1834240
  20.8949163   7.2193979  57.1549162  21.8241223   7.3705139  56.9818129
  20.4740193   7.3078000  56.2997808  19.6937495  11.2444644  54.9247699
  19.5548581  10.8763428  55.7973637  18.9052091  11.7592283  54.7531657
  20.2885647  16.3453740  46.2673236  20.4637403  15.8741783  47.0818859
  19.6018435  16.9719506  46.4954497  21.2442710  10.6226246  52.3136537
  20.9092543  10.5827016  53.2094187  20.7446656   9.9570962  51.8406947
  24.1801902   7.9682281  42.5873597  23.5631072   7.2429109  42.4906649
  23.7118390   8.7291641  42.2440671  17.8469255   5.7413836  57.3272798
  18.5568873   5.1007028  57.2859416  17.8038563   5.9926730  58.2498979
  25.8356033  12.6781189  60.2479377  25.7768580  11.9940409  59.5809960
  26.2375552  13.4200179  59.7960003  14.8546732  19.4943103  53.0413096
  15.0943330  20.1261627  53.7192115  14.0115929  19.1431143  53.3278455
  25.8373441  10.6420773  58.4793357  24.9500219  10.3046695  58.6019756
  26.4071992   9.9103804  58.7162122  19.1564374  14.5393995  48.9557422
  18.3731896  15.0815675  49.0495646  19.8557119  15.0567975  49.3551663
  30.3190781   6.0528990  53.2409918  30.3080657   6.9353706  52.8703852
  29.4508161   5.7000541  53.0464456  23.5490804   9.1060312  49.1730050
  22.6147083   9.2261774  49.0034755  23.7267473   8.2032779  48.9090060
  26.9363356   4.9477631  49.7080084  27.4023808   5.7805623  49.6340387
  27.3870856   4.4822613  50.4125343  16.8785191  12.9503503  58.4218329
  17.5794651  13.5839986  58.5747724  16.4080306  13.2918234  57.6613969
  25.0039587  11.2921452  46.7066237  25.2799431  11.1778047  47.6160111
  24.1344086  10.8938937  46.6678410  24.6786477   5.5048110  56.2470880
  24.0257927   5.7524018  55.5923333  25.0566857   4.6912248  55.9133357
  21.9735816  14.4675988  47.6114099  22.5023583  13.9568443  46.9984261
  22.2364036  14.1518519  48.4759632  20.7274050   6.2467921  62.7336917
  20.0514687   6.1462051  63.4039292  21.5501684   6.0907135  63.1972914
  12.4752909  12.4839858  55.3549432  13.0606346  11.7383546  55.4877336
  12.2777748  12.7943814  56.2386096  15.3291564  15.5191105  50.3711875
  14.6601940  16.0037233  49.8875915  15.1904434  15.7660326  51.2855253
  24.3207707  12.3796106  62.8243187  24.8647611  12.9926064  62.3298142
  23.7394552  12.9375685  63.3410200  24.6700129  13.3025844  55.5837765
  23.7230464  13.1831195  55.5116092  25.0182902  12.4148342  55.6664027
  21.6746562  13.0978560  51.7842117  21.5271524  12.1695268  51.9649687
  22.5000055  13.1198651  51.2999193  25.2780684  13.9207119  52.8706990
  26.2027231  13.7149981  52.7331441  25.1095987  13.6723520  53.7796332
  25.0676000  14.4392787  48.2269082  25.2412877  13.8739209  47.4742934
  25.5604891  15.2393682  48.0448572  30.9215391   7.2029210  49.8459381
  31.3646537   6.4536535  49.4478505  30.0441901   7.1939346  49.4633113
  26.0551172  13.7559551  45.3265980  26.7502077  14.3766244  45.5453295
  26.3974323  12.9054902  45.6018358  27.9542596  11.2059257  46.8553311
  28.4793920  11.5446529  46.1302631  27.8664948  10.2706272  46.6716445
  19.6162644  15.1193330  58.9843187  19.9249771  14.8742477  59.8565887
  20.4138126  15.3239969  58.4962058  12.1175595  13.4642781  51.2173192
  12.9433615  13.1646553  50.8371835  11.7669647  12.6950403  51.6662981
  17.0857128  12.8169249  53.2870866  16.4637138  12.1539954  52.9873093
  17.7561995  12.8430381  52.6044513  10.3184200  11.3829107  52.1762126
   9.4816109  10.9551282  51.9946127  10.2907846  11.5761551  53.1132917
  27.6436502  11.8392160  62.1604509  26.8532045  11.8216299  61.6209008
  27.4069856  12.3780454  62.9153545  27.7634377   8.6884627  59.4737237
  27.8132382   8.5234634  60.4152760  27.6548300   7.8211886  59.0835118
  16.6470635  11.3673172  46.7629326  16.7958756  12.0508637  46.1095999
  17.4537079  11.3478262  47.2778782  25.0538139   4.6715555  60.7896544
  25.9548002   4.5322019  60.4980542  25.1286114   4.8370009  61.7294721
  29.2652574  11.1081568  59.7179259  28.9737382  11.4711549  60.5542720
  28.6524705  10.3948576  59.5392591  30.4648256   8.6734448  52.2381829
  31.2995147   9.1124252  52.4019389  30.6007385   8.1973101  51.4190075
  27.5139762   6.2314183  58.1859317  27.9893883   6.4241829  57.3778168
  26.5905327   6.2873369  57.9402700  14.4023268   7.3938350  47.7690395
  14.1569310   6.4900680  47.9670605  14.5719183   7.3955500  46.8269873
  20.1466041  13.8621303  44.2341073  19.5740008  14.4811490  43.7811545
  20.7198835  14.4120664  44.7680995  26.2141431   3.1079943  56.4187622
  27.1658854   3.2078041  56.4399846  26.0444881   2.3158211  56.9285707
  24.2355810   0.1935526  56.6047023  23.6405742   0.4740539  55.9093512
  23.9505507   0.6829427  57.3763764  23.3663301  14.1458453  45.3649656
  24.2993974  14.0804015  45.5682531  23.2786514  14.9814720  44.9064188
  25.9951317  13.4624323  42.3253603  25.9164949  13.1284187  43.2189361
  26.8160984  13.9546091  42.3245076  28.6929509   6.3286063  55.5329922
  28.6605829   5.3902063  55.7189606  29.3030132   6.4070099  54.7995747
  20.5312839   5.1982116  41.5757126  21.4771944   5.0688324  41.6445544
  20.1527084   4.4596777  42.0526554  28.8423997   3.1197106  55.5788205
  28.3263046   2.3355563  55.3918134  29.7263946   2.7915823  55.7434725
  34.5106058   7.3902069  54.6735959  35.2409447   7.1287358  55.2343662
  33.9013004   6.6530791  54.7138027  32.5921356   5.5309932  55.2710410
  31.8654519   5.3965897  54.6626902  32.1768642   5.8386761  56.0767128
  20.4151532   9.2499862  63.0357783  21.3354541   9.4278461  63.2297829
  20.3801115   8.3055907  62.8837482  13.4113604   7.1600896  55.6780564
  13.6299614   8.0918004  55.6968598  13.8239378   6.8008871  56.4635368
  18.1472740   6.1631241  63.8848375  17.6639822   6.9631601  64.0912264
  18.2333679   6.1739186  62.9315819  11.4158699   7.9959621  51.8070194
  11.3929388   8.0947308  50.8552077  11.7259336   8.8424771  52.1287360
  14.0746077  10.0535776  55.9216808  15.0289331  10.0219718  55.8546740
  13.8758601   9.5926399  56.7367034  14.6645459   8.6236892  58.4887606
  15.4838348   9.1180970  58.5122443  14.9382267   7.7068860  58.4605174
  24.4212056   1.0147644  47.8515562  23.5337911   1.2997295  47.6335756
  24.8366045   0.8541407  47.0042839  27.7726592   1.0394165  51.5669901
  28.5486982   1.5290617  51.8394518  27.0474726   1.4652219  52.0241770
  30.2099150   1.7521784  52.6243842  30.8043641   1.5117520  51.9137150
  30.2825734   1.0328915  53.2517378  12.4296306  15.5955395  52.9387006
  12.2950774  14.8355796  52.3725004  12.0128368  16.3196295  52.4715795
  23.5655269  10.7792319  41.9463582  24.2691119  10.9842321  42.5621237
  22.8417918  11.3469081  42.2112665  24.3953079   6.5302180  48.0665852
  24.3388281   6.9870731  47.2273484  24.9481422   5.7692864  47.8888695
  28.2057885   2.3191912  48.8915971  27.9494820   1.9188547  49.7224179
  27.5810753   3.0335706  48.7666110  32.5170223   5.0587985  51.3987263
  31.9569781   5.1281174  52.1718825  31.9113727   4.8828970  50.6786759
  15.5865432  16.4924712  53.1505449  15.4697816  17.4370145  53.0484139
  14.7657878  16.1898274  53.5391248  25.4741967  11.2174848  43.9962042
  26.3087570  10.7856046  43.8139516  25.3126309  11.0456862  44.9238936
  25.1287859   7.7206961  45.3618381  25.0736663   7.5551233  44.4206825
  24.5033914   8.4282994  45.5180571  22.4433766  10.0255873  64.6871944
  23.3124926  10.1996525  64.3258579  21.9640517  10.8450290  64.5647673
  16.6119946  17.1452974  56.3661377  17.5147193  17.1776584  56.6827872
  16.3857316  16.2153425  56.3807713  18.3673548  15.8983961  53.0271456
  17.4169179  15.8985822  52.9135828  18.6706034  15.1516695  52.5107491
  30.9115948  21.6871927  54.0278743  30.5734459  21.5712992  53.1399278
  31.7805716  21.2863092  54.0079749  26.2757949  24.2967508  45.7277233
  27.0488825  23.7496495  45.5890109  26.6283348  25.1611758  45.9391695
  28.6124227  20.4560174  43.3595683  28.8649748  19.9341696  42.5979146
  27.6748786  20.2926320  43.4622367  33.6567510  19.4595953  51.1670426
  34.4430599  19.0415376  50.8160843  33.9206214  20.3642045  51.3352075
  28.3320516  22.3588280  45.5620058  28.2156774  21.6833184  46.2301143
  28.4422776  21.8720654  44.7452211  30.6752057  21.8198427  49.2666747
  30.3110264  21.2929048  49.9779669  31.5319173  21.4296897  49.0933233
  36.5801358  13.1092760  56.5298014  36.2484682  13.9788171  56.3059229
  35.9846971  12.7929044  57.2092044  30.3157544  16.8488327  44.2628096
  30.4831946  17.7168564  44.6298567  30.1254713  17.0115609  43.3389385
  36.4730021  17.8287846  53.6091364  35.5646898  17.7603255  53.3150125
  36.4217617  18.3059791  54.4373189  30.2946765  19.3045985  45.2474763
  30.1746390  19.7503035  46.0860243  29.5999353  19.6531302  44.6888301
  30.5470887  19.2477492  61.5526261  29.7704221  19.8071412  61.5429126
  31.1861450  19.7334275  62.0741131  38.3391667  16.0304285  55.3869238
  37.6966048  16.3236818  54.7409032  37.8346596  15.9157205  56.1922434
  35.9931831  19.7767458  46.0755097  36.9049687  20.0094845  45.9002794
  35.4841478  20.3604502  45.5130175  30.6303669  19.1364692  57.0849946
  31.4764864  19.5604106  57.2284595  30.5702306  18.4798317  57.7788509
  33.7803114  16.7969061  58.7431120  33.5364046  17.5511121  58.2065396
  34.0563045  17.1754408  59.5778367  33.3367806  15.9525494  54.3244958
  32.4752285  16.2506747  54.6161695  33.3630240  16.1695893  53.3925990
  30.1529375  24.4967684  50.7318763  30.6167721  24.7755387  49.9423386
  29.8886173  23.5951129  50.5491854  29.0898261  20.6190837  47.5408329
  29.7922305  21.0711880  48.0082255  28.7578890  19.9774656  48.1688222
  27.5378623  19.2102593  61.9159538  26.9077283  19.8918874  62.1494935
  27.4314711  19.0985675  60.9712676  44.9393398  22.5618377  51.9415714
  44.1857106  21.9925775  51.7859719  45.0740939  22.5281042  52.8886349
  26.8159365  13.5123359  64.2784789  26.4226311  12.9589558  64.9532433
  27.6325506  13.8233938  64.6691306  29.7327326  14.9281238  61.8705046
  30.4737040  15.5288391  61.7909508  29.9645249  14.1858876  61.3123088
  33.6784489  10.9562341  56.1469327  33.3348759  11.8463983  56.0708438
  34.0463452  10.7663999  55.2838912  33.6434772  20.9470952  44.6541762
  33.1281396  21.7175557  44.8930150  33.3712081  20.2736089  45.2774824
  31.2281883  15.7920653  49.7127001  30.3723480  15.4027504  49.5332639
  31.6408835  15.8712614  48.8526786  32.7581030  13.3266996  54.1118560
  32.2545825  13.2897132  53.2986366  33.0511637  14.2359739  54.1715217
  29.0023916  13.4105726  53.1184742  29.8676912  13.2148535  52.7590632
  29.0701425  13.1816078  54.0454099  33.4321075  18.8198044  46.4801543
  33.1271211  19.1344194  47.3311687  34.3851517  18.8979464  46.5228876
  31.8767507  24.9788268  48.1294497  31.3488869  24.2441027  47.8167735
  31.3755010  25.7562944  47.8834466  26.6086235  15.6407934  50.4901109
  27.1829987  15.4183116  49.7574302  27.1957217  15.7096629  51.2429710
  26.9355822  17.6712395  44.5096994  26.0993134  18.0087082  44.8306269
  26.7960592  17.5361375  43.5724131  28.9108902  12.5149183  49.2176178
  28.2573315  12.1998200  48.5932793  28.8689377  11.8924923  49.9436001
  30.0220107  22.7968478  41.1329470  29.1147169  22.5657732  41.3320619
  30.5191139  22.0006097  41.3203452  32.1446643  19.0031117  53.5423826
  31.2269204  19.2246064  53.3845514  32.5606786  19.0777427  52.6835533
  32.9281691  20.4022532  48.6726506  33.6753510  20.9143929  48.3633628
  33.1973280  20.0806585  49.5330900  35.3760528  17.4379648  50.6545296
  34.6383285  16.9257035  50.9855538  35.6287301  16.9980030  49.8428572
  35.4772155  10.2155900  51.2487065  35.7831032   9.3553264  50.9612980
  36.2024760  10.8073521  51.0486059  29.7493235  20.5109694  51.7563256
  29.8041845  19.5583530  51.6805733  28.9384437  20.6669133  52.2404554
  30.8984429  24.4389817  42.9941539  30.4603858  23.7225676  42.5347177
  31.6394869  24.6665931  42.4326631  27.6885595  19.1286753  49.5153635
  26.8753460  19.4280924  49.9218827  28.1844589  18.7342442  50.2328117
  39.0157543  22.7147014  49.0517858  38.8775442  22.9048610  48.1239047
  38.6593762  23.4766396  49.5085909  31.5578783  14.7105132  59.0952342
  30.9106698  15.4095082  59.0016818  32.3279799  15.1441276  59.4628590
  35.0195656  23.2974198  42.5873597  34.4024827  22.5721026  42.4906649
  34.5512145  24.0583559  42.2440671  26.8094202  17.5159623  41.7094901
  25.9323668  17.3948423  41.3457148  27.2851955  16.7245701  41.4573790
  18.3296342  22.3036782  51.8036408  19.0167382  21.9898512  51.2157424
  18.1744471  23.2078147  51.5303660  33.3054778  15.6780542  51.5991627
  33.8023478  14.9250505  51.2792697  32.5341760  15.7144859  51.0334836
  41.1584536  21.3820908  53.2409918  41.1474412  22.2645623  52.8703852
  40.2901915  21.0292459  53.0464456  29.8889747  17.8197925  51.3263312
  29.5187535  17.2668966  52.0144217  30.3848839  17.2156059  50.7738312
  37.7757110  20.2769549  49.7080084  38.2417562  21.1097540  49.6340387
  38.2264611  19.8114530  50.4125343  35.7473773  12.6450136  53.7470986
  34.8336853  12.8754363  53.9153193  36.1766874  12.7288580  54.5985018
  17.9064318  20.3837376  54.0753875  17.9448418  19.8500966  54.8690993
  17.4004611  19.8572581  53.4564852  24.7607353  17.3025049  61.2189452
  25.3879392  16.9202126  61.8326976  23.9035272  17.0839251  61.5845144
  21.5372896  19.1101478  47.1507807  21.8326337  18.2012156  47.0974860
  20.6360932  19.0889217  46.8288809  27.8693456  14.5211901  59.4076007
  28.3927858  14.7674197  60.1702316  27.6505790  15.3531936  58.9879144
  23.2660738  16.7915575  47.2747132  22.9373444  15.9112954  47.0922238
  23.6200108  16.7363244  48.1623521  26.3802561  17.0788545  47.6422610
  26.7198633  17.6074466  46.9201218  26.8274681  17.4168951  48.4181176
  29.0746002  15.4625596  57.0925678  28.7342822  14.6633409  57.4946357
  28.3685008  15.7627307  56.5202511  29.7262473  12.5474908  55.5453001
  30.5488543  12.0735387  55.4231891  29.9700537  13.3265392  56.0451687
  28.3670708  15.5763167  45.8415902  29.0879070  15.9544420  45.3379619
  27.7436012  16.2952044  45.9450880  32.5101831  16.2808316  46.7774235
  32.7265445  17.1632954  46.4763063  32.0295898  15.8894529  46.0479877
  29.1097435  16.2296577  53.4025869  29.0959004  15.3337670  53.0658167
  29.8269863  16.2367241  54.0364155  28.5134331  15.1110957  48.6713439
  28.6350242  14.1827603  48.8704326  28.2236373  15.1249643  47.7591754
  31.3825521  12.7965868  51.8080159  31.4047218  12.8605201  50.8532138
  31.7993580  11.9570376  52.0020665  41.7609146  22.5321127  49.8459381
  42.2040292  21.7828452  49.4478505  40.8835656  22.5231264  49.4633113
  27.9975410  16.6242955  62.8803372  28.0463566  17.5005077  62.4981141
  28.5397925  16.0820348  62.3075015  30.2274699  17.3774327  59.6349730
  29.3578008  17.6707893  59.3632319  30.4634179  17.9614772  60.3556994
  40.1046328  26.4373486  59.7179259  39.8131136  26.8003466  60.5542720
  39.4918459  25.7240494  59.5392591  41.3042010  24.0026366  52.2381829
  42.1388902  24.4416170  52.4019389  41.4401139  23.5265019  51.4190075
  32.9313733  13.5953944  57.1515151  33.4495677  14.3314971  56.8261639
  32.5768865  13.9017937  57.9861910  24.5112670  18.4558625  45.2676556
  23.8181915  18.5302980  44.6116592  24.2664422  17.6918969  45.7898073
  33.1826327  10.0154227  52.6716047  33.4628081   9.3477416  53.2976474
  33.9676934  10.2083322  52.1590711  37.0535185  18.4371861  56.4187622
  38.0052608  18.5369958  56.4399846  36.8838636  17.6450129  56.9285707
  35.0749565  15.5227444  56.6047023  34.4799497  15.8032456  55.9093512
  34.7899261  16.0121345  57.3763764  36.8345072  28.7916241  42.3253603
  36.7558703  28.4576105  43.2189361  37.6554739  29.2838009  42.3245076
  31.3706594  20.5274033  41.5757126  32.3165699  20.3980241  41.6445544
  30.9920839  19.7888695  42.0526554  39.6817752  18.4489024  55.5788205
  39.1656800  17.6647480  55.3918134  40.5657700  18.1207740  55.7434725
  37.3428478  12.1930039  51.5384018  37.1453300  11.8845127  52.4227350
  37.9528184  12.9191678  51.6681948  45.3499813  22.7193987  54.6735959
  46.0803201  22.4579275  55.2343662  44.7406758  21.9822709  54.7138027
  43.4315110  20.8601850  55.2710410  42.7048274  20.7257815  54.6626902
  43.0162397  21.1678678  56.0767128  29.5549511  18.4524010  41.5112011
  28.6480966  18.1557122  41.5874725  29.8325492  18.1553828  40.6446297
  31.1711577  12.9960899  47.6656252  30.3612305  12.6507984  48.0411499
  31.8595994  12.6868443  48.2543864  33.1002125  12.0738946  49.2880549
  33.6533164  12.4934400  49.9470572  33.3372211  11.1474694  49.3303505
  29.1235224  18.0626020  65.0683313  29.0231951  19.0120377  64.9995404
  28.9056766  17.7344259  64.1959383  28.3248296  15.3110945  41.6523990
  29.1867460  15.6365843  41.9119808  28.5098640  14.5242441  41.1397056
  36.4780932  14.1839471  48.7959213  35.8979601  14.8424275  48.4137266
  36.2116865  13.3616816  48.3846631  34.9284499  13.5844529  50.9980534
  35.4284277  13.6961063  50.1894853  35.5720106  13.2805582  51.6381342
  35.2605810  16.3439562  47.8515562  34.3731665  16.6289212  47.6335756
  35.6759799  16.1833325  47.0042839  38.6120346  16.3686083  51.5669901
  39.3880736  16.8582535  51.8394518  37.8868480  16.7944137  52.0241770
  41.0492905  17.0813702  52.6243842  41.6437396  16.8409438  51.9137150
  41.1219489  16.3620832  53.2517378  34.4049024  26.1084236  41.9463582
  35.1084874  26.3134239  42.5621237  33.6811672  26.6760998  42.2112665
  39.0451640  17.6483829  48.8915971  38.7888574  17.2480465  49.7224179
  38.4204508  18.3627623  48.7666110  43.3563978  20.3879903  51.3987263
  42.7963536  20.4573092  52.1718825  42.7507481  20.2120887  50.6786759
  35.9681613  23.0498879  45.3618381  35.9130417  22.8843150  44.4206825
  35.3427668  23.7574912  45.5180571  29.2777739  12.5506988  44.9403699
  29.2656408  13.4948828  45.0971970  30.1701161  12.3677133  44.6463161
  33.0929858   9.1449764  49.1949636  32.3262254   8.5908251  49.3406319
  33.5040563   9.2171633  50.0563788  25.0971619  15.4334560  63.2854817
  25.9603081  15.0771365  63.4958142  24.5237030  15.0948455  63.9730222
  41.7509702  37.0163845  54.0278743  41.4128214  36.9004909  53.1399278
  42.6199471  36.6155010  54.0079749  43.1896077  42.5370289  45.3290099
  42.5384057  43.1224369  44.9424113  43.9840440  43.0676484  45.3885136
  39.8792953  38.3312657  55.5245492  40.4756526  38.1068679  54.8102455
  39.9367925  37.5897402  56.1270940  39.4517982  35.7852092  43.3595683
  39.7043502  35.2633613  42.5979146  38.5142541  35.6218238  43.4622367
  44.4961265  34.7887870  51.1670426  45.2824354  34.3707294  50.8160843
  44.7599969  35.6933963  51.3352075  44.6671342  40.2260721  45.8659083
  44.0317175  40.2995347  46.5779988  44.3368748  40.8154320  45.1878163
  39.1714271  37.6880198  45.5620058  39.0550529  37.0125101  46.2301143
  39.2816530  37.2012572  44.7452211  41.5145811  37.1490345  49.2666747
  41.1504019  36.6220966  49.9779669  42.3712927  36.7588814  49.0933233
  47.4195112  28.4384678  56.5298014  47.0878437  29.3080089  56.3059229
  46.8240725  28.1220962  57.2092044  41.1551298  32.1780245  44.2628096
  41.3225701  33.0460481  44.6298567  40.9648468  32.3407527  43.3389385
  47.3123775  33.1579764  53.6091364  46.4040653  33.0895172  53.3150125
  47.2611371  33.6351709  54.4373189  41.1340519  34.6337902  45.2474763
  41.0140145  35.0794953  46.0860243  40.4393108  34.9823220  44.6888301
  38.8947411  47.4041544  48.8964894  38.8171441  48.3549369  48.9753375
  38.2909055  47.0587417  49.5539820  41.3864641  34.5769410  61.5526261
  40.6097975  35.1363330  61.5429126  42.0255204  35.0626193  62.0741131
  49.1785422  31.3596202  55.3869238  48.5359802  31.6528736  54.7409032
  48.6740350  31.2449123  56.1922434  46.8325585  35.1059376  46.0755097
  47.7443442  35.3386762  45.9002794  46.3235233  35.6896420  45.5130175
  41.4697423  34.4656610  57.0849946  42.3158618  34.8896024  57.2284595
  41.4096061  33.8090234  57.7788509  44.6196869  32.1260979  58.7431120
  44.3757800  32.8803039  58.2065396  44.8956799  32.5046326  59.5778367
  44.1761560  31.2817412  54.3244958  43.3146039  31.5798665  54.6161695
  44.2023995  31.4987810  53.3925990  40.9923130  39.8259602  50.7318763
  41.4561475  40.1047305  49.9423386  40.7279928  38.9243047  50.5491854
  39.9292016  35.9482754  47.5408329  40.6316059  36.4003798  48.0082255
  39.5972644  35.3066573  48.1688222  38.3772377  34.5394511  61.9159538
  37.7471038  35.2210792  62.1494935  38.2708465  34.4277593  60.9712676
  55.7787152  37.8910295  51.9415714  55.0250861  37.3217693  51.7859719
  55.9134693  37.8572959  52.8886349  37.6553120  28.8415277  64.2784789
  37.2620066  28.2881475  64.9532433  38.4719260  29.1525855  64.6691306
  40.5721081  30.2573156  61.8705046  41.3130794  30.8580309  61.7909508
  40.8039004  29.5150794  61.3123088  35.7162419  35.4429523  60.1483275
  35.6015934  34.5414781  60.4490374  34.8606937  35.6893220  59.7968092
  44.5178244  26.2854259  56.1469327  44.1742513  27.1755901  56.0708438
  44.8857207  26.0955917  55.2838912  44.4828527  36.2762870  44.6541762
  43.9675150  37.0467475  44.8930150  44.2105835  35.6028006  45.2774824
  42.0675638  31.1212571  49.7127001  41.2117234  30.7319421  49.5332639
  42.4802589  31.2004532  48.8526786  43.5974784  28.6558914  54.1118560
  43.0939580  28.6189049  53.2986366  43.8905391  29.5651657  54.1715217
  39.8417670  28.7397644  53.1184742  40.7070667  28.5440453  52.7590632
  39.9095179  28.5107996  54.0454099  44.2714830  34.1489962  46.4801543
  43.9664965  34.4636111  47.3311687  45.2245272  34.2271382  46.5228876
  42.7161262  40.3080185  48.1294497  42.1882623  39.5732945  47.8167735
  42.2148764  41.0854862  47.8834466  46.5059566  36.8573579  51.2965486
  47.0191448  37.4903570  51.7987195  47.1560790  36.2574774  50.9308846
  40.8613862  38.1260396  41.1329470  39.9540924  37.8949649  41.3320619
  41.3584894  37.3298015  41.3203452  43.7681941  46.8357903  44.0526157
  43.0943639  47.1389600  44.6611114  44.1547763  47.6386983  43.7031614
  42.9840397  34.3323034  53.5423826  42.0662959  34.5537981  53.3845514
  43.4000541  34.4069345  52.6835533  43.7675445  35.7314450  48.6726506
  44.5147264  36.2435847  48.3633628  44.0367035  35.4098503  49.5330900
  42.0402095  38.2272991  45.6553461  41.1313315  37.9432023  45.7525930
  42.0697179  38.6472069  44.7956767  46.2154282  32.7671566  50.6545296
  45.4777039  32.2548952  50.9855538  46.4681056  32.3271948  49.8428572
  46.3165910  25.5447818  51.2487065  46.6224786  24.6845182  50.9612980
  47.0418514  26.1365438  51.0486059  40.5886989  35.8401611  51.7563256
  40.6435599  34.8875448  51.6805733  39.7778191  35.9961050  52.2404554
  41.7378183  39.7681734  42.9941539  41.2997613  39.0517593  42.5347177
  42.4788624  39.9957849  42.4326631  38.5279349  34.4578671  49.5153635
  37.7147215  34.7572842  49.9218827  39.0238343  34.0634360  50.2328117
  40.6787927  44.4536428  51.4487900  40.6364106  44.6797274  50.5196432
  41.5950626  44.2199802  51.5973701  44.1253561  34.9220495  58.3468529
  44.4802949  35.1491969  59.2062994  44.7725692  35.2538872  57.7245784
  38.7953728  41.3299457  51.2449862  39.5894326  40.8349777  51.0432437
  38.0845420  40.8017320  50.8817568  36.4946966  33.4135109  57.0786681
  37.1670019  33.2052471  56.4299330  35.6676752  33.2157195  56.6391913
  42.3972538  30.0397050  59.0952342  41.7500453  30.7386999  59.0016818
  43.1673553  30.4733193  59.4628590  42.5736672  37.8777814  57.1549162
  43.5028732  38.0288974  56.9818129  42.1527702  37.9661835  56.2997808
  41.9673156  47.0037575  46.2673236  42.1424912  46.5325619  47.0818859
  41.2805944  47.6303342  46.4954497  42.9230219  41.2810082  52.3136537
  42.5880052  41.2410852  53.2094187  42.4234165  40.6154798  51.8406947
  45.8589411  38.6266116  42.5873597  45.2418581  37.9012944  42.4906649
  45.3905899  39.3875476  42.2440671  39.5256764  36.3997671  57.3272798
  40.2356382  35.7590863  57.2859416  39.4826072  36.6510566  58.2498979
  38.2385698  33.3862889  59.1468437  37.7023055  32.9353627  59.7990034
  37.6502406  33.5208798  58.4038902  37.6487957  32.8451540  41.7094901
  36.7717423  32.7240341  41.3457148  38.1245710  32.0537619  41.4573790
  40.8351883  45.1977831  48.9557422  40.0519405  45.7399511  49.0495646
  41.5344628  45.7151810  49.3551663  44.1448533  31.0072460  51.5991627
  44.6417232  30.2542422  51.2792697  43.3735514  31.0436777  51.0334836
  45.2278313  39.7644147  49.1730050  44.2934592  39.8845610  49.0034755
  45.4054982  38.8616614  48.9090060  40.7283501  33.1489843  51.3263312
  40.3581289  32.5960883  52.0144217  41.2242594  32.5447977  50.7738312
  48.6150865  35.6061467  49.7080084  49.0811317  36.4389458  49.6340387
  49.0658365  35.1406448  50.4125343  46.5867528  27.9742054  53.7470986
  45.6730607  28.2046280  53.9153193  47.0160629  28.0580498  54.5985018
  46.3573986  36.1631946  56.2470880  45.7045436  36.4107853  55.5923333
  46.7354366  35.3496084  55.9133357  43.3181160  46.1991639  50.3499050
  43.5003554  45.3813295  50.8126802  44.1414146  46.4159331  49.9123940
  43.6523325  45.1259824  47.6114099  44.1811092  44.6152278  46.9984261
  43.9151545  44.8102354  48.4759632  42.4061559  36.9051757  62.7336917
  41.7302196  36.8045886  63.4039292  43.2289193  36.7490970  63.1972914
  35.6001108  32.6316966  61.2189452  36.2273146  32.2494044  61.8326976
  34.7429027  32.4131168  61.5845144  38.7087211  29.8503819  59.4076007
  39.2321613  30.0966115  60.1702316  38.4899544  30.6823853  58.9879144
  43.3534071  43.7562396  51.7842117  43.2059033  42.8279103  51.9649687
  44.1787564  43.7782487  51.2999193  39.9139756  30.7917514  57.0925678
  39.5736576  29.9925327  57.4946357  39.2078762  31.0919224  56.5202511
  39.2064462  30.9055085  45.8415902  39.9272825  31.2836337  45.3379619
  38.5829766  31.6243961  45.9450880  43.3495585  31.6100233  46.7774235
  43.5659200  32.4924871  46.4763063  42.8689652  31.2186447  46.0479877
  39.9491189  31.5588495  53.4025869  39.9352758  30.6629588  53.0658167
  40.6663618  31.5659158  54.0364155  41.8017320  31.9925835  55.4478996
  41.5435098  32.9142906  55.4463327  41.2702361  31.5956269  56.1379460
  42.2219276  28.1257785  51.8080159  42.2440973  28.1897119  50.8532138
  42.6387335  27.2862294  52.0020665  41.3170765  47.9315075  51.2148564
  40.8775756  47.4391454  51.9081421  42.0678882  47.3888043  50.9740639
  38.8369165  31.9534872  62.8803372  38.8857320  32.8296995  62.4981141
  39.3791679  31.4112265  62.3075015  38.3258144  42.0257008  46.7629326
  38.4746265  42.7092472  46.1095999  39.1324588  42.0062098  47.2778782
  41.0668453  32.7066245  59.6349730  40.1971763  32.9999811  59.3632319
  41.3027934  33.2906690  60.3556994  43.7707487  28.9245862  57.1515151
  44.2889431  29.6606889  56.8261639  43.4162620  29.2309855  57.9861910
  44.0220081  25.3446144  52.6716047  44.3021835  24.6769333  53.2976474
  44.8070688  25.5375240  52.1590711  41.8253550  44.5205138  44.2341073
  41.2527517  45.1395325  43.7811545  42.3986344  45.0704500  44.7680995
  47.8928940  33.7663778  56.4187622  48.8446363  33.8661876  56.4399846
  47.7232390  32.9742047  56.9285707  45.9143319  30.8519361  56.6047023
  45.3193251  31.1324374  55.9093512  45.6293016  31.3413262  57.3763764
  42.2100348  35.8565951  41.5757126  43.1559453  35.7272159  41.6445544
  41.8314593  35.1180613  42.0526554  50.5211506  33.7780941  55.5788205
  50.0050555  32.9939398  55.3918134  51.4051455  33.4499658  55.7434725
  48.1822233  27.5221957  51.5384018  47.9847054  27.2137045  52.4227350
  48.7921938  28.2483596  51.6681948  56.1893567  38.0485905  54.6735959
  56.9196956  37.7871193  55.2343662  55.5800513  37.3114627  54.7138027
  54.2708864  36.1893767  55.2710410  53.5442028  36.0549732  54.6626902
  53.8556151  36.4970596  56.0767128  40.3943266  33.7815927  41.5112011
  39.4874721  33.4849040  41.5874725  40.6719247  33.4845745  40.6446297
  42.0105331  28.3252817  47.6656252  41.2006060  27.9799902  48.0411499
  42.6989748  28.0160361  48.2543864  43.9395880  27.4030864  49.2880549
  44.4926918  27.8226317  49.9470572  44.1765966  26.4766612  49.3303505
  39.9628979  33.3917937  65.0683313  39.8625706  34.3412294  64.9995404
  39.7450521  33.0636176  64.1959383  39.1642050  30.6402862  41.6523990
  40.0261214  30.9657761  41.9119808  39.3492394  29.8534358  41.1397056
  47.3174687  29.5131389  48.7959213  46.7373356  30.1716193  48.4137266
  47.0510619  28.6908734  48.3846631  45.7678253  28.9136447  50.9980534
  46.2678031  29.0252981  50.1894853  46.4113861  28.6097499  51.6381342
  39.8260249  36.8215076  63.8848375  39.3427331  37.6215436  64.0912264
  39.9121188  36.8323021  62.9315819  46.0999565  31.6731479  47.8515562
  45.2125420  31.9581130  47.6335756  46.5153554  31.5125243  47.0042839
  49.4514101  31.6978000  51.5669901  50.2274491  32.1874453  51.8394518
  48.7262235  32.1236054  52.0241770  51.8886659  32.4105620  52.6243842
  52.4831150  32.1701355  51.9137150  51.9613243  31.6912750  53.2517378
  45.2442778  41.4376154  41.9463582  45.9478628  41.6426156  42.5621237
  44.5205427  42.0052916  42.2112665  46.0740588  37.1886015  48.0665852
  46.0175790  37.6454567  47.2273484  46.6268931  36.4276700  47.8888695
  49.8845394  32.9775747  48.8915971  49.6282329  32.5772383  49.7224179
  49.2598262  33.6919541  48.7666110  54.1957732  35.7171820  51.3987263
  53.6357290  35.7865010  52.1718825  53.5901236  35.5412805  50.6786759
  46.8075368  38.3790796  45.3618381  46.7524171  38.2135068  44.4206825
  46.1821423  39.0866829  45.5180571  40.1171493  27.8798906  44.9403699
  40.1050163  28.8240745  45.0971970  41.0094915  27.6969051  44.6463161
  43.9323613  24.4741682  49.1949636  43.1656008  23.9200169  49.3406319
  44.3434318  24.5463551  50.0563788  35.9365374  30.7626478  63.2854817
  36.7996835  30.4063283  63.4958142  35.3630784  30.4240373  63.9730222
  45.9954705  55.6942430  52.8559855  46.7875996  55.3533255  52.4406154
  46.2351355  55.8037405  53.7762008  49.7930501  56.2827726  58.9344133
  49.5020367  57.1873357  58.8190799  50.4287485  56.3244254  59.6488202
  58.2588867  43.7676595  56.5298014  57.9272191  44.6372006  56.3059229
  57.6634480  43.4512879  57.2092044  54.7520386  55.9689141  55.9293926
  54.4521109  56.8714180  55.8209734  54.4071446  55.7021325  56.7815079
  55.9560108  54.8575921  59.7116389  56.3643464  54.4158332  58.9671022
  55.2337369  54.2828549  59.9650582  56.2788922  55.4177112  53.4668678
  55.6497785  55.5822826  52.7644746  55.8914584  55.8318721  54.2379642
  60.1578154  56.3531550  50.8213042  59.4729192  56.7330451  50.2710075
  60.2422003  56.9626876  51.5544990  48.7240965  54.7023001  53.6698527
  49.2942322  55.1310270  53.0316011  49.3149077  54.4205586  54.3682712
  58.5274914  56.8763464  55.5930743  59.3492357  56.4743651  55.3113425
  58.5237317  56.7731698  56.5446859  46.4625850  49.9002804  49.8008939
  45.6657013  50.0121498  50.3192434  46.2351442  50.2389456  48.9349829
  52.2931517  56.4247507  57.7491453  52.3575950  56.8867915  58.5849625
  51.5842441  55.7944872  57.8773763  51.4114835  45.5865074  61.8705046
  52.1524549  46.1872227  61.7909508  51.6432758  44.8442711  61.3123088
  53.6348011  58.7139181  61.7470776  53.1911865  57.9275560  61.4291680
  54.2965225  58.9018332  61.0814667  48.3935132  60.2434983  56.2731454
  48.9442557  60.1152046  55.5008448  47.5546608  60.5429872  55.9226347
  55.7329249  58.9941981  59.7752177  55.7147725  59.8150862  59.2832446
  56.6549169  58.8696056  60.0002318  52.1902303  56.5086111  60.6175685
  52.7230640  55.7474399  60.3874993  51.6616385  56.2159762  61.3599840
  43.4257849  53.9379707  48.9657929  44.2633071  54.3476715  48.7491637
  43.6036117  52.9979149  48.9358123  58.1115117  57.1671498  49.4244628
  57.6577444  56.3262408  49.4809819  57.4809084  57.8032896  49.7619408
  56.5548056  59.0047994  50.3594446  56.8471031  59.5653052  49.6406812
  57.0646677  59.2976555  51.1147605  57.1559664  40.8739736  51.2487065
  57.4618541  40.0137099  50.9612980  57.8812269  41.4657356  51.0486059
  43.4484020  51.2770422  49.6368663  43.2508420  50.6839783  48.9119729
  42.8930684  50.9722633  50.3544602  60.7214432  55.4407376  54.0629129
  61.1550939  55.3482665  54.9112183  61.4346013  55.4164876  53.4249145
  45.8615795  47.3289269  49.9087857  46.1222612  48.2434602  49.7997017
  46.6832967  46.8613712  50.0584469  61.5829982  55.4831077  56.5962015
  61.7765872  56.3876887  56.8421290  61.4830600  55.0238496  57.4300600
  52.2118758  57.2320397  54.9247699  52.0729844  56.8639181  55.7973637
  51.4233355  57.7468036  54.7531657  53.7623974  56.6101999  52.3136537
  53.4273806  56.5702769  53.2094187  53.2627919  55.9446715  51.8406947
  58.3537297  58.6656942  60.2479377  58.2949843  57.9816162  59.5809960
  58.7556815  59.4075932  59.7960003  58.3554704  56.6296526  58.4793357
  57.4681483  56.2922448  58.6019756  58.9253255  55.8979557  58.7162122
  40.0083851  52.9620618  51.8036408  40.6954891  52.6482348  51.2157424
  39.8531980  53.8661982  51.5303660  51.8855857  61.2897978  55.4454600
  51.8126029  62.0952950  55.9573905  51.4433251  61.4889944  54.6202621
  54.3454541  61.1884812  57.6012759  55.0582513  61.8232277  57.5288660
  53.8544570  61.2848678  56.7852760  49.3966455  58.9379256  58.4218329
  50.0975914  59.5715739  58.5747724  48.9261570  59.2793987  57.6613969
  57.4261282  43.3033971  53.7470986  56.5124362  43.5338198  53.9153193
  57.8554383  43.3872415  54.5985018  44.9934173  58.4715611  55.3549432
  45.5787609  57.7259299  55.4877336  44.7959011  58.7819567  56.2386096
  39.5851827  51.0421211  54.0753875  39.6235927  50.5084802  54.8690993
  39.0792120  50.5156417  53.4564852  51.9878096  63.5410602  56.9694533
  52.5396404  63.7042223  57.7343618  52.3284290  64.1315040  56.2974558
  56.8388971  58.3671859  62.8243187  57.3828875  58.9801817  62.3298142
  56.2575816  58.9251438  63.3410200  43.2160405  49.7685313  47.1507807
  43.5113846  48.8595992  47.0974860  42.3148441  49.7473053  46.8288809
  55.1246484  61.4892577  53.9558215  54.9997623  60.6882317  53.4469161
  55.7825575  61.9838771  53.4672185  57.1881392  59.2901597  55.5837765
  56.2411728  59.1706948  55.5116092  57.5364165  58.4024095  55.6664027
  54.1927825  59.0854314  51.7842117  54.0452788  58.1571021  51.9649687
  55.0181319  59.1074404  51.2999193  57.7961947  59.9082872  52.8706990
  58.7208495  59.7025734  52.7331441  57.6277251  59.6599273  53.7796332
  52.1343908  61.1069083  58.9843187  52.4431034  60.8618230  59.8565887
  52.9319390  61.3115722  58.4962058  49.6038392  58.8045002  53.2870866
  48.9818401  58.1415707  52.9873093  50.2743259  58.8306134  52.6044513
  42.8365464  57.3704860  52.1762126  41.9997372  56.9427035  51.9946127
  42.8089109  57.5637304  53.1132917  60.1617765  57.8267913  62.1604509
  59.3713309  57.8092052  61.6209008  59.9251120  58.3656207  62.9153545
  60.2815640  54.6760380  59.4737237  60.3313645  54.5110387  60.4152760
  60.1729563  53.8087639  59.0835118  61.7833837  57.0957321  59.7179259
  61.4918645  57.4587302  60.5542720  61.1705968  56.3824329  59.5392591
  62.9829519  54.6610201  52.2381829  63.8176411  55.1000005  52.4019389
  63.1188648  54.1848854  51.4190075  54.6101242  44.2537779  57.1515151
  55.1283186  44.9898806  56.8261639  54.2556374  44.5601773  57.9861910
  67.0287322  53.3777822  54.6735959  67.7590710  53.1163111  55.2343662
  66.4194267  52.6406544  54.7138027  65.1102619  51.5185685  55.2710410
  64.3835783  51.3841650  54.6626902  64.6949906  51.8262514  56.0767128
  42.1514960  50.4314208  51.9611058  41.8317745  49.5779517  51.6685432
  41.6048389  50.6462786  52.7169025  42.0203220  54.0517120  53.9304179
  41.3266692  53.6371073  53.4174134  42.7676211  54.0937656  53.3337598
  58.1568441  44.8423307  48.7959213  57.5767110  45.5008111  48.4137266
  57.8904374  44.0200651  48.3846631  56.6072007  44.2428364  50.9980534
  57.1071786  44.3544899  50.1894853  57.2507615  43.9389417  51.6381342
  56.9393319  47.0023397  47.8515562  56.0519174  47.2873048  47.6335756
  57.3547308  46.8417160  47.0042839  44.9477570  61.5831148  52.9387006
  44.8132038  60.8231549  52.3725004  44.5309632  62.3072048  52.4715795
  65.0351487  51.0463738  51.3987263  64.4751045  51.1156927  52.1718825
  64.4294990  50.8704723  50.6786759  54.9615029  56.0131626  64.6871944
  55.8306189  56.1872278  64.3258579  54.4821781  56.8326043  64.5647673
  59.3340629  59.4999112  64.2784789  58.9407575  58.9465311  64.9532433
  60.1506769  59.8109691  64.6691306  57.3949928  66.1013359  60.1483275
  57.2803443  65.1998616  60.4490374  56.5394446  66.3477055  59.7968092
  66.1965753  56.9438094  56.1469327  65.8530022  57.8339736  56.0708438
  66.5644715  56.7539752  55.2838912  61.4290166  58.5024936  49.2176178
  60.7754578  58.1873953  48.5932793  61.3870640  57.8800676  49.9436001
  58.5761972  67.3461547  57.8389118  58.4381770  66.6141786  58.4400657
  59.4866895  67.2570447  57.5573306  61.2044273  67.0581506  57.3272798
  61.9143891  66.4174698  57.2859416  61.1613581  67.3094401  58.2498979
  59.9173207  64.0446724  59.1468437  59.3810564  63.5937463  59.7990034
  59.3289915  64.1792633  58.4038902  73.6765799  67.3696661  53.2409918
  73.6655675  68.2521376  52.8703852  72.8083179  67.0168212  53.0464456
  57.8036344  61.2177669  57.5716418  57.8677671  62.0792500  57.1593815
  57.7403464  60.6051671  56.8388776  57.2788617  63.2900802  61.2189452
  57.9060655  62.9077879  61.8326976  56.4216536  63.0715004  61.5845144
  62.2443737  58.5350661  55.5453001  63.0669806  58.0611140  55.4231891
  62.4881800  59.3141145  56.0451687  55.0294000  66.8945023  59.1862797
  54.2875736  67.0427658  59.7727428  54.7086744  67.1553288  58.3229547
  60.5156674  62.6118708  62.8803372  60.5644829  63.4880831  62.4981141
  61.0579188  62.0696101  62.3075015  77.8681076  68.7069740  54.6735959
  78.5984465  68.4455028  55.2343662  77.2588022  67.9698462  54.7138027
  63.6892840  58.9836652  47.6656252  62.8793569  58.6383737  48.0411499
  64.3777257  58.6744196  48.2543864  53.2755392  64.2742696  59.1879803
  53.9214255  63.7641650  59.6767028  53.0672543  65.0111378  59.7623228
  57.6152883  61.4210313  63.2854817  58.4784344  61.0647118  63.4958142
  57.0418293  61.0824208  63.9730222  73.9045905  80.5645163  61.5526261
  73.1279239  81.1239083  61.5429126  74.5436468  81.0501946  62.0741131
  73.9719026  87.0831343  57.7491453  74.0363459  87.5451750  58.5849625
  73.2629950  86.4528708  57.8773763  88.2968416  83.8786048  51.9415714
  87.5432124  83.3093446  51.7859719  88.4315957  83.8448712  52.8886349
  73.0902344  76.2448909  61.8705046  73.8312058  76.8456062  61.7909508
  73.3220267  75.5026547  61.3123088  75.3135520  89.3723017  61.7470776
  74.8699374  88.5859395  61.4291680  75.9752734  89.5602167  61.0814667
  70.0722641  90.9018818  56.2731454  70.6230066  90.7735882  55.5008448
  69.2334117  91.2013707  55.9226347  77.4116758  89.6525817  59.7752177
  77.3935234  90.4734698  59.2832446  78.3336678  89.5279892  60.0002318
  73.8689812  87.1669946  60.6175685  74.4018149  86.4058234  60.3874993
  73.3403894  86.8743598  61.3599840  76.2863204  92.8233656  44.0526157
  75.6124903  93.1265353  44.6611114  76.6729026  93.6262736  43.7031614
  73.1969191  90.4412181  51.4487900  73.1545369  90.6673027  50.5196432
  74.1131889  90.2075556  51.5973701  76.1329836  89.6993305  55.5962230
  76.1866858  90.2684242  56.3639946  75.2644617  89.8695190  55.2316267
  74.9153801  76.0272803  59.0952342  74.2681716  76.7262752  59.0016818
  75.6854817  76.4608947  59.4628590  78.3232599  86.2921655  62.1702895
  78.1718106  86.0632206  61.2532979  78.3137279  87.2492256  62.1834240
  74.4854419  92.9913328  46.2673236  74.6606175  92.5201372  47.0818859
  73.7987207  93.6179095  46.4954497  80.0324806  89.3240777  60.2479377
  79.9737352  88.6399997  59.5809960  80.4344324  90.0659767  59.7960003
  69.0515505  96.1402691  53.0413096  69.2912103  96.7721215  53.7192115
  68.2084701  95.7890731  53.3278455  73.5643366  91.9481814  55.4454600
  73.4913538  92.7536785  55.9573905  73.1220760  92.1473779  54.6202621
  76.0242050  91.8468648  57.6012759  76.7370022  92.4816112  57.5288660
  75.5332079  91.9432514  56.7852760  71.0753964  89.5963091  58.4218329
  71.7763423  90.2299574  58.5747724  70.6049079  89.9377823  57.6613969
  75.8362423  92.1867392  50.3499050  76.0184818  91.3689048  50.8126802
  76.6595409  92.4035084  49.9123940  73.6665605  94.1994437  56.9694533
  74.2183913  94.3626059  57.7343618  74.0071799  94.7898875  56.2974558
  78.5176480  89.0255695  62.8243187  79.0616384  89.6385653  62.3298142
  77.9363325  89.5835273  63.3410200  76.8033993  92.1476413  53.9558215
  76.6785132  91.3466152  53.4469161  77.4613084  92.6422606  53.4672185
  78.8668901  89.9485433  55.5837765  77.9199237  89.8290784  55.5116092
  79.2151674  89.0607931  55.6664027  75.8715334  89.7438149  51.7842117
  75.7240297  88.8154856  51.9649687  76.6968828  89.7658240  51.2999193
  73.8131417  91.7652919  58.9843187  74.1218543  91.5202065  59.8565887
  74.6106899  91.9699557  58.4962058  73.8352029  93.9190828  51.2148564
  73.3957019  93.4267207  51.9081421  74.5860146  93.3763796  50.9740639
  81.8405274  88.4851749  62.1604509  81.0500818  88.4675887  61.6209008
  81.6038629  89.0240042  62.9153545  79.2506912  81.3175143  60.7896544
  80.1516774  81.1781608  60.4980542  79.3254886  81.4829598  61.7294721
  83.4621346  87.7541157  59.7179259  83.1706154  88.1171137  60.5542720
  82.8493477  87.0408165  59.5392591  81.7108534  82.8773771  58.1859317
  82.1862656  83.0701417  57.3778168  80.7874100  82.9332957  57.9402700
  80.1920090  90.1083912  42.3253603  80.1133721  89.7743775  43.2189361
  81.0129757  90.6005680  42.3245076  88.7074831  84.0361658  54.6735959
  89.4378219  83.7746946  55.2343662  88.0981776  83.2990380  54.7138027
  86.7890128  82.1769520  55.2710410  86.0623292  82.0425485  54.6626902
  86.3737415  82.4846349  56.0767128  74.6120304  85.8959450  63.0357783
  75.5323314  86.0738049  63.2297829  74.5769887  84.9515495  62.8837482
  86.7138996  81.7047573  51.3987263  86.1538554  81.7740763  52.1718825
  86.1082499  81.5288558  50.6786759  69.7834204  93.1384301  53.1505449
  69.6666589  94.0829733  53.0484139  68.9626651  92.8357862  53.5391248
  76.6402538  86.6715461  64.6871944  77.5093698  86.8456114  64.3258579
  76.1609290  87.4909878  64.5647673  70.8088719  93.7912562  56.3661377
  71.7115965  93.8236173  56.6827872  70.5826089  92.8613013  56.3807713
  72.5642321  92.5443549  53.0271456  71.6137952  92.5445411  52.9135828
  72.8674807  91.7976284  52.5107491  88.2995014  98.3804087  54.0917218
  88.9373424  98.2610835  53.3880559  88.1815857  99.3284931  54.1505171
  85.1084720  98.3331515  54.0278743  84.7703232  98.2172580  53.1399278
  85.9774489  97.9322681  54.0079749  80.9671536 100.1866992  50.0175634
  80.4036401 100.0956929  49.2491922  80.8523931  99.3666896  50.4978127
  85.5904503  99.4866367  59.9864949  85.5793144  99.0919165  59.1145452
  85.7525143  98.7532440  60.5798720  78.5135968 101.6818183  52.8559855
  79.3057260 101.3409008  52.4406154  78.7532618 101.7913158  53.7762008
  80.4726722 100.9427097  45.7277233  81.2457598 100.3956084  45.5890109
  80.8252121 101.8071346  45.9391695  82.3111764 102.2703479  58.9344133
  82.0201630 103.1749110  58.8190799  82.9468749 102.3120007  59.6488202
  83.2367971  99.6480327  55.5245492  83.8331544  99.4236350  54.8102455
  83.2942943  98.9065073  56.1270940  82.8093000  97.1019763  43.3595683
  83.0618520  96.5801284  42.5979146  81.8717559  96.9385908  43.4622367
  87.8536283  96.1055541  51.1670426  88.6399372  95.6874964  50.8160843
  88.1174987  97.0101633  51.3352075  93.2544710  96.0430774  52.0703405
  93.9869882  95.4729991  52.3041234  92.4984065  95.6552375  52.5109911
  82.5289288  99.0047869  45.5620058  82.4125547  98.3292772  46.2301143
  82.6391548  98.5180243  44.7452211  84.8720829  98.4658016  49.2666747
  84.5079037  97.9388637  49.9779669  85.7287945  98.0756485  49.0933233
  90.7770130  89.7552348  56.5298014  90.4453455  90.6247759  56.3059229
  90.1815743  89.4388632  57.2092044  84.5126316  93.4947916  44.2628096
  84.6800719  94.3628152  44.6298567  84.3223485  93.6575197  43.3389385
  80.7214131  98.4078691  51.9630631  79.7964628  98.2754905  52.1708323
  80.9698544  99.1872911  52.4600573  90.6698793  94.4747435  53.6091364
  89.7615671  94.4062843  53.3150125  90.6186389  94.9519380  54.4373189
  84.4915537  95.9505573  45.2474763  84.3715162  96.3962624  46.0860243
  83.7968126  96.2990891  44.6888301  78.0822942  98.0511965  52.7974420
  78.2115323  98.3046444  53.7113832  77.4020393  98.6439673  52.4779075
  84.7439659  95.8937080  61.5526261  83.9672993  96.4531000  61.5429126
  85.3830222  96.3793863  62.0741131  92.5360440  92.6763873  55.3869238
  91.8934820  92.9696406  54.7409032  92.0315368  92.5616793  56.1922434
  90.1900603  96.4227046  46.0755097  91.1018460  96.6554433  45.9002794
  89.6810250  97.0064090  45.5130175  82.9986031  98.7022534  61.1144228
  83.7400716  99.2407578  60.8379052  82.2923017  99.3288822  61.2715780
  88.4741371 100.8451674  59.7116389  88.8824727 100.4034085  58.9671022
  87.7518633 100.2704302  59.9650582  84.8272441  95.7824281  57.0849946
  85.6733636  96.2063694  57.2284595  84.7671079  95.1257905  57.7788509
  87.9771886  93.4428649  58.7431120  87.7332818  94.1970710  58.2065396
  88.2531817  93.8213997  59.5778367  87.5336578  92.5985082  54.3244958
  86.6721057  92.8966336  54.6161695  87.5599013  92.8155481  53.3925990
  84.3498148 101.1427273  50.7318763  84.8136493 101.4214976  49.9423386
  84.0854946 100.2410717  50.5491854  81.2422229 100.6898754  53.6698527
  81.8123586 101.1186023  53.0316011  81.8330341 100.4081339  54.3682712
  83.2867034  97.2650425  47.5408329  83.9891077  97.7171469  48.0082255
  82.9547662  96.6234244  48.1688222  81.7347395  95.8562182  61.9159538
  81.1046056  96.5378463  62.1494935  81.6283483  95.7445263  60.9712676
  77.0292368  95.5233978  52.8425462  76.2391422  95.7791506  52.3665573
  77.5203615  96.3382316  52.9477503  78.9807113  95.8878557  49.8008939
  78.1838276  95.9997251  50.3192434  78.7532705  96.2265209  48.9349829
  84.8112781 102.4123260  57.7491453  84.8757213 102.8743668  58.5849625
  84.1023705 101.7820625  57.8773763  75.3130071  95.7764468  55.2740453
  75.5638109  96.6611478  55.5398029  75.8489619  95.5969070  54.5015545
  81.0128138  90.1582948  64.2784789  80.6195083  89.6049146  64.9532433
  81.8294278  90.4693526  64.6691306  77.9790196 101.5966806  48.1898359
  78.4914716 102.3910056  48.3403924  78.6312909 100.8993096  48.1231960
  79.7885080 104.7132562  50.2721112  79.9651709 105.6350527  50.0842096
  80.5841914 104.3990981  50.7015492  83.9296099  91.5740827  61.8705046
  84.6705812  92.1747980  61.7909508  84.1614022  90.8318465  61.3123088
  79.0737437  96.7597194  60.1483275  78.9590952  95.8582451  60.4490374
  78.2181955  97.0060891  59.7968092  84.7083567 102.4961864  60.6175685
  85.2411904 101.7350152  60.3874993  84.1797648 102.2035516  61.3599840
  87.8753262  87.6021930  56.1469327  87.5317531  88.4923571  56.0708438
  88.2432224  87.4123587  55.2838912  75.9439112  99.9255460  48.9657929
  76.7814334 100.3352468  48.7491637  76.1217380  98.9854902  48.9358123
  87.8403545  97.5930541  44.6541762  87.3250168  98.3635145  44.8930150
  87.5680853  96.9195677  45.2774824  85.4250656  92.4380242  49.7127001
  84.5692252  92.0487092  49.5332639  85.8377607  92.5172202  48.8526786
  86.9549802  89.9726585  54.1118560  86.4514598  89.9356720  53.2986366
  87.2480409  90.8819328  54.1715217  87.6289848  95.4657633  46.4801543
  87.3239983  95.7803782  47.3311687  88.5820290  95.5439053  46.5228876
  86.0736280 101.6247856  48.1294497  85.5457641 100.8900616  47.8167735
  85.5723782 102.4022533  47.8834466  89.8634584  98.1741249  51.2965486
  90.3766466  98.8071241  51.7987195  90.5135808  97.5742445  50.9308846
  81.1324594  94.3171983  44.5096994  80.2961907  94.6546670  44.8306269
  80.9929364  94.1820963  43.5724131  84.2188880  99.4428066  41.1329470
  83.3115942  99.2117320  41.3320619  84.7159912  98.6465686  41.3203452
  86.3415415  95.6490705  53.5423826  85.4237977  95.8705652  53.3845514
  86.7575559  95.7237015  52.6835533  87.1250463  97.0482121  48.6726506
  87.8722282  97.5603518  48.3633628  87.3942053  96.7266173  49.5330900
  85.3977113  99.5440661  45.6553461  84.4888332  99.2599694  45.7525930
  85.4272197  99.9639740  44.7956767  89.5729300  94.0839237  50.6545296
  88.8352057  93.5716623  50.9855538  89.8256074  93.6439618  49.8428572
  89.6740928  86.8615489  51.2487065  89.9799804  86.0012852  50.9612980
  90.3993532  87.4533109  51.0486059  75.9665284  97.2646175  49.6368663
  75.7689683  96.6715536  48.9119729  75.4111948  96.9598386  50.3544602
  83.9462007  97.1569282  51.7563256  84.0010617  96.2043118  51.6805733
  83.1353209  97.3128721  52.2404554  85.0953201 101.0849405  42.9941539
  84.6572631 100.3685264  42.5347177  85.8363642 101.3125520  42.4326631
  81.8854367  95.7746342  49.5153635  81.0722233  96.0740512  49.9218827
  82.3813361  95.3802030  50.2328117  87.4828579  96.2388166  58.3468529
  87.8377967  96.4659639  59.2062994  88.1300710  96.5706543  57.7245784
  81.3768442  93.3464697  55.1314870  82.0167821  93.2053456  54.4337833
  80.5445972  93.0599211  54.7553472  82.1528746 102.6467128  51.2449862
  82.9469344 102.1517448  51.0432437  81.4420438 102.1184991  50.8817568
  78.4611509  96.7910209  47.3209615  77.5309097  96.7294665  47.5379577
  78.5568981  96.2686162  46.5246256  78.3797058  93.3165022  49.9087857
  78.6403876  94.2310355  49.7997017  79.2014231  92.8489465  50.0584469
  79.8521984  94.7302779  57.0786681  80.5245037  94.5220141  56.4299330
  79.0251770  94.5324865  56.6391913  85.7547556  91.3564720  59.0952342
  85.1075471  92.0554670  59.0016818  86.5248571  91.7900864  59.4628590
  85.9311690  99.1945485  57.1549162  86.8603750  99.3456645  56.9818129
  85.5102720  99.2829506  56.2997808  84.7300022 103.2196150  54.9247699
  84.5911108 102.8514934  55.7973637  83.9414618 103.7343789  54.7531657
  86.2805237 102.5977752  52.3136537  85.9455070 102.5578522  53.2094187
  85.7809183 101.9322468  51.8406947  80.2549481  98.0045382  57.8389118
  80.1169279  97.2725621  58.4400657  81.1654404  97.9154282  57.5573306
  89.2164429  99.9433787  42.5873597  88.5993599  99.2180615  42.4906649
  88.7480917 100.7043147  42.2440671  82.8831782  97.7165342  57.3272798
  83.5931400  97.0758534  57.2859416  82.8401090  97.9678236  58.2498979
  81.5960716  94.7030560  59.1468437  81.0598073  94.2521298  59.7990034
  81.0077424  94.8376468  58.4038902  81.0062975  94.1619211  41.7094901
  80.1292441  94.0408012  41.3457148  81.4820728  93.3705289  41.4573790
  72.5265115  98.9496371  51.8036408  73.2136155  98.6358101  51.2157424
  72.3713243  99.8537735  51.5303660  77.3299837  93.8386567  56.2321432
  77.2458026  93.2312237  55.4971842  76.5082543  94.3295586  56.2330928
  87.5023551  92.3240131  51.5991627  87.9992250  91.5710093  51.2792697
  86.7310532  92.3604447  51.0334836  84.0858519  94.4657514  51.3263312
  83.7156307  93.9128554  52.0144217  84.5817612  93.8615647  50.7738312
  91.9725883  96.9229137  49.7080084  92.4386335  97.7557129  49.6340387
  92.4233383  96.4574119  50.4125343  89.9442545  89.2909724  53.7470986
  89.0305625  89.5213951  53.9153193  90.3735647  89.3748168  54.5985018
  89.7149004  97.4799616  56.2470880  89.0620454  97.7275524  55.5923333
  90.0929384  96.6663754  55.9133357  85.7636577  98.2219427  62.7336917
  85.0877214  98.1213557  63.4039292  86.5864211  98.0658641  63.1972914
  77.5115436 104.4591364  55.3549432  78.0968873 103.7135052  55.4877336
  77.3140275 104.7695321  56.2386096  72.1033091  97.0296964  54.0753875
  72.1417190  96.4960555  54.8690993  71.5973384  96.5032170  53.4564852
  79.4823853  91.8761505  57.5716418  79.5465180  92.7376335  57.1593815
  79.4190973  91.2635506  56.8388776  78.9576126  93.9484637  61.2189452
  79.5848164  93.5661714  61.8326976  78.1004044  93.7298839  61.5845144
  75.7341668  95.7561066  47.1507807  76.0295109  94.8471745  47.0974860
  74.8329704  95.7348806  46.8288809  79.2635915  93.8317063  53.1335355
  78.5422501  94.4453030  52.9942829  80.0529171  94.3674828  53.0552001
  82.0662229  91.1671489  59.4076007  82.5896631  91.4133786  60.1702316
  81.8474562  91.9991524  58.9879144  77.4629510  93.4375164  47.2747132
  77.1342216  92.5572543  47.0922238  77.8168881  93.3822833  48.1623521
  80.5771333  93.7248134  47.6422610  80.9167406  94.2534055  46.9201218
  81.0243454  94.0628540  48.4181176  83.2714774  92.1085184  57.0925678
  82.9311594  91.3092997  57.4946357  82.5653780  92.4086895  56.5202511
  83.9231246  89.1934497  55.5453001  84.7457315  88.7194975  55.4231891
  84.1669309  89.9724981  56.0451687  82.5639480  92.2222755  45.8415902
  83.2847843  92.6004008  45.3379619  81.9404784  92.9411632  45.9450880
  86.7070603  92.9267904  46.7774235  86.9234218  93.8092542  46.4763063
  86.2264670  92.5354118  46.0479877  81.4469825  95.8853617  53.3544979
  81.3014405  96.1993920  54.2469261  80.9695028  96.5038518  52.8015878
  83.3066207  92.8756165  53.4025869  83.2927776  91.9797259  53.0658167
  84.0238636  92.8826829  54.0364155  85.1592338  93.3093506  55.4478996
  84.9010116  94.2310576  55.4463327  84.6277379  92.9123940  56.1379460
  75.9215487  98.4258962  56.2932640  75.3768955  99.2018770  56.4252915
  76.7994837  98.7729766  56.1351762  82.7103103  91.7570546  48.6713439
  82.8319015  90.8287192  48.8704326  82.4205146  91.7709232  47.7591754
  85.5794294  89.4425456  51.8080159  85.6015991  89.5064789  50.8532138
  85.9962353  88.6029965  52.0020665  76.7081509  97.5528858  59.1862797
  75.9663245  97.7011493  59.7727428  76.3874253  97.8137124  58.3229547
  77.1538122 105.4394287  51.2173192  77.9796142 105.1398059  50.8371835
  76.8032174 104.6701909  51.6662981  82.1219655 104.7920755  53.2870866
  81.4999665 104.1291460  52.9873093  82.7924522 104.8181887  52.6044513
  75.3546727 103.3580613  52.1762126  74.5178636 102.9302788  51.9946127
  75.3270373 103.5513057  53.1132917  82.1944183  93.2702543  62.8803372
  82.2432338  94.1464666  62.4981141  82.7366697  92.7279936  62.3075015
  81.6833162 103.3424678  46.7629326  81.8321283 104.0260143  46.1095999
  82.4899606 103.3229768  47.2778782  90.0900666  96.6467061  60.7896544
  90.9910529  96.5073526  60.4980542  90.1648641  96.8121516  61.7294721
  84.4243471  94.0233915  59.6349730  83.5546781  94.3167482  59.3632319
  84.6602952  94.6074360  60.3556994  79.4385795  99.3689856  47.7690395
  79.1931837  98.4652186  47.9670605  79.6081710  99.3707006  46.8269873
  87.1282505  90.2413532  57.1515151  87.6464449  90.9774559  56.8261639
  86.7737638  90.5477526  57.9861910  78.7081443  95.1018214  45.2676556
  78.0150688  95.1762569  44.6116592  78.4633195  94.3378557  45.7898073
  87.3795099  86.6613815  52.6716047  87.6596853  85.9937004  53.2976474
  88.1645706  86.8542911  52.1590711  91.2503958  95.0831449  56.4187622
  92.2021381  95.1829547  56.4399846  91.0807408  94.2909717  56.9285707
  89.2718337  92.1687032  56.6047023  88.6768269  92.4492045  55.9093512
  88.9868034  92.6580933  57.3763764  85.5675366  97.1733622  41.5757126
  86.5134471  97.0439830  41.6445544  85.1889611  96.4348283  42.0526554
  93.8786524  95.0948612  55.5788205  93.3625573  94.3107069  55.3918134
  94.7626472  94.7667329  55.7434725  91.5397251  88.8389628  51.5384018
  91.3422072  88.5304716  52.4227350  92.1496956  89.5651267  51.6681948
  85.4514059 101.2251368  63.0357783  86.3717068 101.4029967  63.2297829
  85.4163642 100.2807413  62.8837482  83.7518283  95.0983598  41.5112011
  82.8449739  94.8016711  41.5874725  84.0294264  94.8013416  40.6446297
  74.6696224  96.4189961  51.9611058  74.3499008  95.5655270  51.6685432
  74.1229652  96.6338540  52.7169025  78.4476131  99.1352402  55.6780564
  78.6662141 100.0669510  55.6968598  78.8601905  98.7760377  56.4635368
  85.3680349  89.6420488  47.6656252  84.5581078  89.2967573  48.0411499
  86.0564766  89.3328031  48.2543864  87.2970897  88.7198534  49.2880549
  87.8501936  89.1393988  49.9470572  87.5340984  87.7934283  49.3303505
  83.3203997  94.7085608  65.0683313  83.2200724  95.6579965  64.9995404
  83.1025539  94.3803847  64.1959383  82.5217068  91.9570533  41.6523990
  83.3836232  92.2825431  41.9119808  82.7067412  91.1702029  41.1397056
  74.5384484 100.0392873  53.9304179  73.8447955  99.6246826  53.4174134
  75.2857475 100.0813409  53.3337598  90.6749705  90.8299060  48.7959213
  90.0948374  91.4883864  48.4137266  90.4085637  90.0076404  48.3846631
  89.1253271  90.2304117  50.9980534  89.6253049  90.3420652  50.1894853
  89.7688879  89.9265170  51.6381342  83.1835267  98.1382747  63.8848375
  82.7002348  98.9383107  64.0912264  83.2696206  98.1490692  62.9315819
  76.4521226  99.9711127  51.8070194  76.4291915 100.0698814  50.8552077
  76.7621863 100.8176277  52.1287360  79.1108604 102.0287282  55.9216808
  80.0651858 101.9971224  55.8546740  78.9121128 101.5677905  56.7367034
  79.7007986 100.5988398  58.4887606  80.5200875 101.0932476  58.5122443
  79.9744794  99.6820366  58.4605174  89.4574583  92.9899150  47.8515562
  88.5700438  93.2748801  47.6335756  89.8728572  92.8292913  47.0042839
  92.8089119  93.0145671  51.5669901  93.5849509  93.5042123  51.8394518
  92.0837253  93.4403725  52.0241770  95.2461677  93.7273290  52.6243842
  95.8406168  93.4869026  51.9137150  95.3188261  93.0080421  53.2517378
  77.4658833 107.5706901  52.9387006  77.3313301 106.8107302  52.3725004
  77.0490895 108.2947801  52.4715795  89.4315606  98.5053686  48.0665852
  89.3750808  98.9622237  47.2273484  89.9843949  97.7444371  47.8888695
  93.2420412  94.2943418  48.8915971  92.9857346  93.8940053  49.7224179
  92.6173280  95.0087212  48.7666110  74.9542901  94.9326532  59.1879803
  75.6001764  94.4225486  59.6767028  74.7460052  95.6695213  59.7623228
  79.2940392  92.0794149  63.2854817  80.1571853  91.7230954  63.4958142
  78.7205802  91.7408043  63.9730222  34.1026243  -1.2593378  40.8162525
  34.7404653  -1.3786631  40.1125865  33.9847086  -0.3112535  40.8750477
  30.9115949  -1.3065950  40.7524050  30.5734461  -1.4224886  39.8644585
  31.7805717  -1.7074785  40.7325056  26.7702765   0.5469526  36.7420941
  26.2067630   0.4559463  35.9737228  26.6555160  -0.2730569  37.2223433
  31.3935732  -0.1531099  46.7110255  31.3824373  -0.5478300  45.8390759
  31.5556372  -0.8865026  47.3044027  24.3167197   2.0420718  39.5805161
  25.1088489   1.7011542  39.1651460  24.5563847   2.1515693  40.5007314
  32.3502324   4.2140494  32.0535406  31.6990303   4.7994574  31.6669419
  33.1446686   4.7446689  32.1130443  26.2757951   1.3029631  32.4522540
  27.0488827   0.7558618  32.3135416  26.6283350   2.1673880  32.6637001
  28.1142993   2.6306013  45.6589439  27.8232859   3.5351644  45.5436106
  28.7499978   2.6722541  46.3733509  29.0399200   0.0082862  42.2490799
  29.6362772  -0.2161116  41.5347762  29.0974172  -0.7332393  42.8516247
  33.6567511  -3.5341925  37.8915733  34.4430601  -3.9522501  37.5406150
  33.9206216  -2.6295832  38.0597381  33.8277589   1.9030926  32.5904390
  33.1923422   1.9765552  33.3025295  33.4974995   2.4924525  31.9123469
  39.0575939  -3.5966691  38.7948712  39.7901110  -4.1667475  39.0286541
  38.3015294  -3.9845091  39.2355217  28.3320517  -0.6349597  32.2865365
  28.2156775  -1.3104694  32.9546449  28.4422777  -1.1217223  31.4697518
  30.6752058  -1.1739450  35.9912054  30.3110265  -1.7008829  36.7024976
  31.5319174  -1.5640981  35.8178539  33.0732878   2.3167429  42.6539233
  32.7733601   3.2192468  42.5455040  32.7283938   2.0499612  43.5060386
  26.5245360  -1.2318774  38.6875937  25.5995856  -1.3642560  38.8953629
  26.7729773  -0.4524555  39.1845880  36.4730022  -5.1650031  40.3336670
  35.5646900  -5.2334623  40.0395431  36.4217618  -4.6878086  41.1618496
  30.2946766  -3.6891893  31.9720069  30.1746391  -3.2434842  32.8105550
  29.5999354  -3.3406575  31.4133608  28.0553658   9.0811749  35.6210201
  27.9777688  10.0319574  35.6998681  27.4515302   8.7357622  36.2785127
  30.5470888  -3.7460386  48.2771568  29.7704222  -3.1866465  48.2674432
  31.1861451  -3.2603603  48.7986438  38.3391669  -6.9633593  42.1114544
  37.6966049  -6.6701060  41.4654339  37.8346597  -7.0780672  42.9167741
  35.9931832  -3.2170420  32.8000403  36.9049688  -2.9843033  32.6248101
  35.4841479  -2.6333375  32.2375482  28.8017260  -0.9374932  47.8389535
  29.5431945  -0.3989888  47.5624358  28.0954246  -0.3108643  47.9961086
  34.2772600   1.2054208  46.4361696  34.6855956   0.7636619  45.6916328
  33.5549861   0.6306836  46.6895889  30.6303670  -3.8573185  43.8095253
  31.4764865  -3.4333771  43.9529902  30.5702308  -4.5139561  44.5033816
  34.6001415   1.7655399  40.1913985  33.9710277   1.9301113  39.4890053
  34.2127077   2.1797008  40.9624949  38.4790646   2.7009837  37.5458349
  37.7941685   3.0808738  36.9955382  38.5634496   3.3105163  38.2790296
  33.7803115  -6.1968817  45.4676427  33.5364047  -5.4426756  44.9310702
  34.0563046  -5.8183469  46.3023674  35.7341578   0.3469796  44.1453692
  35.9458473   0.9901556  43.4688073  35.6871326  -0.4867888  43.6775622
  33.3367807  -7.0412384  41.0490264  32.4752286  -6.7431130  41.3407002
  33.3630242  -6.8241985  40.1171297  30.1529376   1.5029807  37.4564070
  30.6167722   1.7817510  36.6668693  29.8886175   0.6013252  37.2737161
  27.0453457   1.0501289  40.3943833  27.6154815   1.4788557  39.7561318
  27.6361569   0.7683873  41.0928019  29.0898262  -2.3747041  34.2653635
  29.7922306  -1.9225997  34.7327562  28.7578891  -3.0163222  34.8933528
  36.8487406   3.2241751  42.3176050  37.6704850   2.8221938  42.0358731
  36.8449809   3.1209985  43.2692165  30.6144009   2.7725795  44.4736760
  30.6788442   3.2346202  45.3094932  29.9054933   2.1423159  44.6019070
  44.9393399  -0.4319500  38.6661021  44.1857107  -1.0012102  38.5105025
  45.0740940  -0.4656836  39.6131656  30.3292027   4.4393902  34.3415740
  30.1937702   5.2845438  34.7700588  30.8701840   4.6413180  33.5781674
  23.7821424   1.9569340  34.9143665  24.2945945   2.7512590  35.0649230
  24.4344137   1.2595630  34.8477267  25.5916309   5.0735096  36.9966419
  25.7682938   5.9953061  36.8087403  26.3873143   4.7593516  37.4260798
  31.9560503   5.0617469  48.4716082  31.5124358   4.2753847  48.1536987
  32.6177717   5.2496619  47.8059973  26.7147625   6.5913270  42.9976761
  27.2655050   6.4630333  42.2253755  25.8759101   6.8908159  42.6471654
  34.0541742   5.3420268  46.4997484  34.0360217   6.1629149  46.0077753
  34.9761662   5.2174344  46.7247625  30.5114796   2.8564398  47.3420992
  31.0443133   2.0952686  47.1120300  29.9828877   2.5638050  48.0845147
  33.6434773  -2.0466925  31.3787069  33.1281397  -1.2762320  31.6175456
  33.3712082  -2.7201789  32.0020130  38.6169048   0.7065430  33.3140242
  37.8398490   0.3676589  32.8695405  39.2960528   0.7118053  32.6395207
  33.4321077  -4.1739833  33.2046850  33.1271212  -3.8593684  34.0556993
  34.3851519  -4.0958413  33.2474183  31.8767508   1.9850390  34.8539804
  31.3488870   1.2503150  34.5413042  31.3755011   2.7625067  34.6079772
  36.8560354   0.1799411  39.9706850  36.1984029   0.8698672  40.0586979
  37.6600754   0.5695843  40.3140837  35.6665813  -1.4656216  38.0210792
  36.1797695  -0.8326225  38.5232502  36.3167037  -2.0655021  37.6554152
  32.9288187   8.5128108  30.7771463  32.2549886   8.8159805  31.3856421
  33.3154009   9.3157188  30.4276920  32.1446644  -3.9906761  40.2669133
  31.2269205  -3.7691814  40.1090821  32.5606788  -3.9160450  39.4080840
  32.9281692  -2.5915345  35.3971813  33.6753511  -2.0793948  35.0878935
  33.1973281  -2.9131292  36.2576207  31.2008342  -0.0956804  32.3798767
  30.2919561  -0.3797772  32.4771237  31.2303426   0.3242274  31.5202074
  36.4327609   3.5149785  36.1489935  35.9789937   2.6740695  36.2055125
  35.8021576   4.1511183  36.4864715  35.3760529  -5.5558229  37.3790602
  34.6383286  -6.0680843  37.7100845  35.6287303  -5.9957847  36.5673879
  34.8760549   5.3526282  37.0839753  35.1683523   5.9131339  36.3652119
  35.3859169   5.6454843  37.8392912  29.7493236  -2.4828184  38.4808563
  29.8041846  -3.4354347  38.4051039  28.9384438  -2.3268745  38.9649861
  30.8984430   1.4451939  29.7186846  30.4603860   0.7287798  29.2592483
  31.6394871   1.6728054  29.1571937  29.8394174   6.1306633  38.1733206
  29.7970353   6.3567479  37.2441738  30.7556873   5.8970007  38.3219007
  33.2859808  -3.4009300  45.0713835  33.6409195  -3.1737827  45.9308301
  33.9331939  -3.0690923  44.4491091  39.0157545  -0.2790864  35.7763164
  38.8775443  -0.0889268  34.8484354  38.6593763   0.4828519  36.2331216
  39.0426924   1.7885663  40.7874436  39.4763431   1.6960952  41.6357490
  39.7558505   1.7643164  40.1494452  27.9559975   3.0069662  37.9695169
  28.7500573   2.5119982  37.7677744  27.2451667   2.4787525  37.6062874
  32.7754819   5.3887757  42.3207536  32.8291841   5.9578694  43.0885252
  31.9069600   5.5589642  41.9561574  39.9042474   1.8309364  43.3207321
  40.0978364   2.7355174  43.5666596  39.8043092   1.3716783  44.1545906
  34.9657582   1.9816107  48.8948202  34.8143089   1.7526658  47.9778286
  34.9562262   2.9386708  48.9079547  31.7342919  -0.4451981  43.8794468
  32.6634979  -0.2940821  43.7063436  31.3133949  -0.3567960  43.0243115
  30.5331251   3.5798684  41.6493006  30.3942336   3.2117468  42.5218944
  29.7445847   4.0946323  41.4776964  31.1279403   8.6807780  32.9918542
  31.3031158   8.2095823  33.8064165  30.4412191   9.3073546  33.2199803
  32.0836466   2.9580286  39.0381844  31.7486298   2.9181056  39.9339494
  31.5840411   2.2925002  38.5652254  35.0195657   0.3036321  29.3118903
  34.4024828  -0.4216851  29.2151956  34.5512146   1.0645681  28.9685978
  28.6863010  -1.9232124  44.0518105  29.3962629  -2.5638932  44.0104723
  28.6432319  -1.6719229  44.9744285  36.6749789   5.0135229  46.9724684
  36.6162335   4.3294449  46.3055267  37.0769307   5.7554219  46.5205310
  25.6940488  11.8297143  39.7658403  25.9337086  12.4615667  40.4437421
  24.8509684  11.4785183  40.0523762  36.6767196   2.9774813  45.2038663
  35.7893975   2.6400735  45.3265062  37.2465747   2.2457844  45.4407429
  30.2068350   7.6376265  42.1699907  30.1338521   8.4431237  42.6819211
  29.7645743   7.8368231  41.3447928  29.9958129   6.8748036  35.6802728
  29.2125651   7.4169716  35.7740953  30.6950875   7.3922015  36.0796969
  41.1584537  -1.6116970  39.9655225  41.1474413  -0.7292254  39.5949158
  40.2901916  -1.9645419  39.7709762  32.6667033   7.5363100  44.3258065
  33.3795005   8.1710564  44.2533967  32.1757062   7.6326966  43.5098067
  34.3884560   1.4414352  35.8975357  33.4540839   1.5615815  35.7280061
  34.5661229   0.5386819  35.6335367  37.7757112  -2.7168329  36.4325391
  38.2417564  -1.8840337  36.3585694  38.2264612  -3.1823347  37.1370650
  27.7178947   5.2857543  45.1463636  28.4188406   5.9194026  45.2993030
  27.2474062   5.6272275  44.3859275  35.8433343   3.6275493  33.4311543
  36.1193187   3.5132087  34.3405417  34.9737841   3.2292978  33.3923716
  35.5180233  -2.1597850  42.9716186  34.8651683  -1.9121942  42.3168639
  35.8960613  -2.9733711  42.6378664  32.4787407   7.8761844  37.0744357
  32.6609801   7.0583500  37.5372109  33.3020393   8.0929536  36.6369247
  32.8129572   6.8030029  34.3359405  33.3417339   6.2922483  33.7229567
  33.0757792   6.4872559  35.2004938  31.5667806  -1.4178039  49.4582224
  30.8908443  -1.5183909  50.1284599  32.3895440  -1.5738825  49.9218221
  23.3146665   4.8193898  42.0794739  23.9000102   4.0737586  42.2122643
  23.1171503   5.1297855  42.9631403  26.1685320   7.8545145  37.0957181
  25.4995695   8.3391273  36.6121221  26.0298190   8.1014366  38.0100560
  30.3090589   9.8888889  43.6939840  30.8608897  10.0520510  44.4588925
  30.6496782  10.4793327  43.0219864  35.1601463   4.7150146  49.5488494
  35.7041367   5.3280105  49.0543449  34.5788308   5.2729725  50.0655507
  33.4458976   7.8370864  40.6803522  33.3210115   7.0360604  40.1714467
  34.1038067   8.3317058  40.1917492  35.5093884   5.6379885  42.3083072
  34.5624220   5.5185236  42.2361399  35.8576657   4.7502383  42.3909333
  32.5140318   5.4332601  38.5087424  32.3665280   4.5049308  38.6894994
  33.3393811   5.4552691  38.0244499  36.1174439   6.2561159  39.5952297
  37.0420987   6.0504021  39.4576748  35.9489743   6.0077561  40.5041638
  35.9069756   6.7746827  34.9514388  36.0806633   6.2093249  34.1988241
  36.3998647   7.5747722  34.7693878  41.7609147  -0.4616750  36.5704688
  42.2040293  -1.2109425  36.1723811  40.8835657  -0.4706614  36.1878420
  36.8944928   6.0913591  32.0511287  37.5895833   6.7120284  32.2698601
  37.2368078   5.2408943  32.3263664  38.7936351   3.5413297  33.5798617
  39.3187675   3.8800570  32.8547937  38.7058704   2.6060312  33.3961752
  30.4556400   7.4547371  45.7088494  30.7643526   7.2096517  46.5811194
  31.2531882   7.6594009  45.2207364  30.4777012   9.6085280  37.9393870
  30.0382002   9.1161659  38.6326727  31.2285129   9.0658248  37.6985946
  22.9569351   5.7996821  37.9418499  23.7827371   5.5000593  37.5617142
  22.6063403   5.0304443  38.3908287  27.9250884   5.1523289  40.0116172
  27.3030893   4.4893994  39.7118400  28.5955751   5.1784421  39.3289820
  21.1577956   3.7183147  38.9007432  20.3209864   3.2905322  38.7191433
  21.1301602   3.9115591  39.8378223  38.4830257   4.1746201  48.8849815
  37.6925801   4.1570339  48.3454315  38.2463612   4.7134494  49.6398852
  38.6028132   1.0238667  46.1982544  38.6526137   0.8588674  47.1398067
  38.4942056   0.1565926  45.8080425  27.4864391   3.7027213  33.4874633
  27.6352511   4.3862677  32.8341305  28.2930835   3.6832303  34.0024088
  35.8931895  -2.9930405  47.5141850  36.7941758  -3.1323940  47.2225848
  35.9679869  -2.8275950  48.4540028  40.1046329   3.4435608  46.4424565
  39.8131138   3.8065589  47.2788026  39.4918461   2.7302617  46.2637897
  41.3042012   1.0088488  38.9627136  42.1388903   1.4478292  39.1264696
  41.4401140   0.5327141  38.1435381  38.3533517  -1.4331777  44.9104623
  38.8287639  -1.2404131  44.1023475  37.4299083  -1.3772591  44.6648007
  25.2417024  -0.2707610  34.4935702  24.9963066  -1.1745280  34.6915912
  25.4112939  -0.2690459  33.5515180  30.9859797   6.1975343  30.9586380
  30.4133764   6.8165530  30.5056852  31.5592590   6.7474705  31.4926302
  37.0535186  -4.5566017  43.1432929  38.0052609  -4.4567919  43.1645153
  36.8838637  -5.3487748  43.6531013  35.0749566  -7.4710434  43.3292330
  34.4799498  -7.1905421  42.6338818  34.7899263  -6.9816533  44.1009071
  34.2057056   6.4812493  32.0894962  35.1387730   6.4158055  32.2927838
  34.1180269   7.3168760  31.6309495  36.8345073   5.7978364  29.0498910
  36.7558705   5.4638227  29.9434668  37.6554740   6.2900131  29.0490382
  39.5323264  -1.3359897  42.2575229  39.4999584  -2.2743896  42.4434912
  40.1423888  -1.2575860  41.5241053  39.6817753  -4.5448854  42.3033512
  39.1656801  -5.3290397  42.1163441  40.5657701  -4.8730137  42.4680031
  45.3499814  -0.2743890  41.3981265  46.0803203  -0.5358602  41.9588969
  44.7406760  -1.0115168  41.4383333  43.4315111  -2.1336028  41.9955717
  42.7048275  -2.2680063  41.3872208  43.0162398  -1.8259199  42.8012435
  31.2545288   1.5853902  49.7603090  32.1748297   1.7632501  49.9543136
  31.2194871   0.6409947  49.6082789  24.2507360  -0.5045063  42.4025871
  24.4693370   0.4272044  42.4213905  24.6633134  -0.8637089  43.1880675
  28.9866496  -1.5014719  50.6093681  28.5033577  -0.7014359  50.8157570
  29.0727435  -1.4906774  49.6561125  22.2552455   0.3313661  38.5315501
  22.2323143   0.4301348  37.5797384  22.5653092   1.1778812  38.8532667
  24.9139833   2.3889816  42.6462115  25.8683087   2.3573758  42.5792047
  24.7152357   1.9280440  43.4612341  25.5039215   0.9590932  45.2132913
  26.3232104   1.4535011  45.2367750  25.7776023   0.0422900  45.1850480
  35.2605811  -6.6498316  34.5760868  34.3731666  -6.3648665  34.3581063
  35.6759800  -6.8104552  33.7288145  38.6120348  -6.6251795  38.2915208
  39.3880738  -6.1355342  38.5639824  37.8868482  -6.1993741  38.7487077
  41.0492906  -5.9124176  39.3489148  41.6437397  -6.1528440  38.6382456
  41.1219490  -6.6317045  39.9762684  23.2690062   7.9309435  39.6632313
  23.1344530   7.1709836  39.0970311  22.8522124   8.6550335  39.1961102
  34.4049025   3.1146359  28.6708888  35.1084875   3.3196361  29.2866544
  33.6811674   3.6823121  28.9357972  35.2346835  -1.1343780  34.7911158
  35.1782037  -0.6775228  33.9518791  35.7875178  -1.8953095  34.6134001
  39.0451641  -5.3454048  35.6161278  38.7888575  -5.7457412  36.4469486
  38.4204509  -4.6310254  35.4911417  43.3563979  -2.6057975  38.1232569
  42.7963537  -2.5364785  38.8964131  42.7507482  -2.7816990  37.4032066
  26.4259188   8.8278752  39.8750756  26.3091572   9.7724185  39.7729446
  25.6051634   8.5252314  40.2636555  36.3135722   3.5528888  30.7207348
  37.1481326   3.1210087  30.5384823  36.1520065   3.3810902  31.6484243
  35.9681614   0.0561001  32.0863688  35.9130418  -0.1094727  31.1452132
  35.3427670   0.7637034  32.2425877  33.2827522   2.3609913  51.4117250
  34.1518681   2.5350566  51.0503885  32.8034273   3.1804330  51.2892980
  27.4513702   9.4807014  43.0906684  28.3540949   9.5130625  43.4073179
  27.2251072   8.5507465  43.1053020  29.2067304   8.2338001  39.7516763
  28.2562935   8.2339862  39.6381135  29.5099790   7.4870735  39.2352797
  44.9419997  14.0698539  40.8162525  45.5798407  13.9505287  40.1125865
  44.8240840  15.0179383  40.8750477  41.7509704  14.0225967  40.7524050
  41.4128215  13.9067032  39.8644585  42.6199472  13.6217132  40.7325056
  37.6096519  15.8761444  36.7420941  37.0461384  15.7851381  35.9737228
  37.4948914  15.0561348  37.2223433  42.2329487  15.1760819  46.7110255
  42.2218127  14.7813617  45.8390759  42.3950126  14.4426892  47.3044027
  35.1560951  17.3712635  39.5805161  35.9482243  17.0303460  39.1651460
  35.3957601  17.4807610  40.5007314  43.1896078  19.5432411  32.0535406
  42.5384058  20.1286492  31.6669419  43.9840441  20.0738606  32.1130443
  37.1151705  16.6321549  32.4522540  37.8882581  16.0850536  32.3135416
  37.4677104  17.4965798  32.6637001  38.9536748  17.9597931  45.6589439
  38.6626614  18.8643562  45.5436106  39.5893732  18.0014458  46.3733509
  39.8792955  15.3374779  42.2490799  40.4756527  15.1130802  41.5347762
  39.9367926  14.5959525  42.8516247  39.4517983  12.7914215  30.0840990
  39.7043504  12.2695736  29.3224453  38.5142542  12.6280360  30.1867673
  44.4961266  11.7949993  37.8915733  45.2824355  11.3769416  37.5406150
  44.7599970  12.6996085  38.0597381  44.6671343  17.2322843  32.5904390
  44.0317176  17.3057470  33.3025295  44.3368750  17.8216442  31.9123469
  49.8969693  11.7325226  38.7948712  50.6294865  11.1624443  39.0286541
  49.1409049  11.3446827  39.2355217  39.1714272  14.6942321  32.2865365
  39.0550530  14.0187224  32.9546449  39.2816532  14.2074695  31.4697518
  41.5145813  14.1552468  35.9912054  41.1504020  13.6283089  36.7024976
  42.3712929  13.7650937  35.8178539  47.4195113   5.4446800  43.2543320
  47.0878438   6.3142211  43.0304535  46.8240727   5.1283084  43.9337351
  41.1551300   9.1842367  30.9873403  41.3225702  10.0522604  31.3543874
  40.9648469   9.3469649  30.0634692  43.9126633  17.6459346  42.6539233
  43.6127356  18.5484385  42.5455040  43.5677692  17.3791530  43.5060386
  37.3639114  14.0973143  38.6875937  36.4389611  13.9649357  38.8953629
  37.6123528  14.8767362  39.1845880  47.3123777  10.1641887  40.3336670
  46.4040654  10.0957295  40.0395431  47.2611372  10.6413831  41.1618496
  41.1340521  11.6400025  31.9720069  41.0140146  12.0857076  32.8105550
  40.4393109  11.9885343  31.4133608  34.7247925  13.7406417  39.5219726
  34.8540307  13.9940896  40.4359138  34.0445377  14.3334125  39.2024382
  38.8947413  24.4103667  35.6210201  38.8171442  25.3611492  35.6998681
  38.2909056  24.0649539  36.2785127  41.3864642  11.5831532  48.2771568
  40.6097977  12.1425452  48.2674432  42.0255206  12.0688315  48.7986438
  49.1785423   8.3658325  42.1114544  48.5359803   8.6590858  41.4654339
  48.6740352   8.2511245  42.9167741  46.8325587  12.1121498  32.8000403
  47.7443443  12.3448885  32.6248101  46.3235234  12.6958542  32.2375482
  39.6411015  14.3916986  47.8389535  40.3825699  14.9302029  47.5624358
  38.9348000  15.0183274  47.9961086  45.1166354  16.5346126  46.4361696
  45.5249710  16.0928536  45.6916328  44.3943616  15.9598753  46.6895889
  41.4697424  11.4718733  43.8095253  42.3158620  11.8958146  43.9529902
  41.4096062  10.8152357  44.5033816  45.4395169  17.0947317  40.1913985
  44.8104031  17.2593031  39.4890053  45.0520831  17.5088926  40.9624949
  49.3184401  18.0301754  37.5458349  48.6335439  18.4100656  36.9955382
  49.4028250  18.6397081  38.2790296  44.6196870   9.1323101  45.4676427
  44.3757802   9.8865162  44.9310702  44.8956800   9.5108449  46.3023674
  46.5735333  15.6761713  44.1453692  46.7852228  16.3193473  43.4688073
  46.5265081  14.8424030  43.6775622  44.1761561   8.2879534  41.0490264
  43.3146041   8.5860788  41.3407002  44.2023996   8.5049933  40.1171297
  40.9923131  16.8321725  37.4564070  41.4561476  17.1109428  36.6668693
  40.7279929  15.9305169  37.2737161  37.8847212  16.3793206  40.3943833
  38.4548569  16.8080475  39.7561318  38.4755324  16.0975791  41.0928019
  39.9292017  12.9544877  34.2653635  40.6316060  13.4065921  34.7327562
  39.5972645  12.3128696  34.8933528  38.3772378  11.5456634  48.6404845
  37.7471039  12.2272915  48.8740241  38.2708466  11.4339715  47.6957983
  33.6717351  11.2128430  39.5670769  32.8816405  11.4685958  39.0910879
  34.1628598  12.0276768  39.6722809  47.6881160  18.5533669  42.3176050
  48.5098604  18.1513856  42.0358731  47.6843563  18.4501903  43.2692165
  35.6232096  11.5773009  36.5254245  34.8263260  11.6891703  37.0437741
  35.3957689  11.9159661  35.6595136  41.4537764  18.1017712  44.4736760
  41.5182196  18.5638119  45.3094932  40.7448688  17.4715077  44.6019070
  31.9555054  11.4658920  41.9985760  32.2063092  12.3505930  42.2643335
  32.4914602  11.2863522  41.2260851  55.7787154  14.8972417  38.6661021
  55.0250862  14.3279815  38.5105025  55.9134695  14.8635082  39.6131656
  41.1685782  19.7685820  34.3415740  41.0331456  20.6137355  34.7700588
  41.7095594  19.9705097  33.5781674  37.6553121   5.8477400  51.0030096
  37.2620067   5.2943598  51.6777740  38.4719262   6.1587978  51.3936613
  34.6215179  17.2861258  34.9143665  35.1339700  18.0804508  35.0649230
  35.2737892  16.5887548  34.8477267  36.4310064  20.4027014  36.9966419
  36.6076692  21.3244979  36.8087403  37.2266897  20.0885433  37.4260798
  40.5721082   7.2635279  48.5950352  41.3130796   7.8642432  48.5154815
  40.8039005   6.5212916  48.0368395  35.7162420  12.4491646  46.8728582
  35.6015935  11.5476903  47.1735681  34.8606938  12.6955343  46.5213398
  37.5541379  21.9205188  42.9976761  38.1048804  21.7922251  42.2253755
  36.7152855  22.2200077  42.6471654  44.8935496  20.6712186  46.4997484
  44.8753971  21.4921067  46.0077753  45.8155416  20.5466261  46.7247625
  41.3508550  18.1856316  47.3420992  41.8836887  17.4244604  47.1120300
  40.8222631  17.8929967  48.0845147  44.5178245   3.2916382  42.8714634
  44.1742515   4.1818023  42.7953744  44.8857208   3.1018039  42.0084219
  32.5864096  15.6149912  35.6903236  33.4239318  16.0246920  35.4736944
  32.7642363  14.6749354  35.6603430  44.4828528  13.2824993  31.3787069
  43.9675151  14.0529597  31.6175456  44.2105836  12.6090129  32.0020130
  42.0675639   8.1274693  36.4372307  41.2117235   7.7381544  36.2577946
  42.4802591   8.2066654  35.5772093  43.5974786   5.6621037  40.8363867
  43.0939581   5.6251172  40.0231672  43.8905392   6.5713779  40.8960524
  39.8417671   5.7459766  39.8430049  40.7070668   5.5502575  39.4835938
  39.9095180   5.5170118  40.7699406  49.4562802  16.0357347  33.3140242
  48.6792245  15.6968507  32.8695405  50.1354283  16.0409970  32.6395207
  44.2714831  11.1552085  33.2046850  43.9664967  11.4698234  34.0556993
  45.2245273  11.2333505  33.2474183  42.7161263  17.3142308  34.8539804
  42.1882624  16.5795068  34.5413042  42.2148766  18.0916984  34.6079772
  47.6954109  15.5091329  39.9706850  47.0377783  16.1990590  40.0586979
  48.4994508  15.8987760  40.3140837  37.4479991   7.9761974  37.2146416
  38.0223742   7.7537156  36.4819609  38.0350973   8.0450669  37.9675017
  46.5059568  13.8635701  38.0210792  47.0191449  14.4965693  38.5232502
  47.1560792  13.2636897  37.6554152  37.7749578  10.0066435  31.2342301
  36.9386890  10.3441122  31.5551576  37.6354347   9.8715415  30.2969438
  39.7502658   4.8503223  35.9421485  39.0967071   4.5352240  35.3178100
  39.7083132   4.2278964  36.6681308  40.8613863  15.1322518  27.8574777
  39.9540925  14.9011772  28.0565926  41.3584895  14.3360138  28.0448759
  43.7681942  23.8420026  30.7771463  43.0943641  24.1451722  31.3856421
  44.1547764  24.6449106  30.4276920  42.9840399  11.3385157  40.2669133
  42.0662960  11.5600104  40.1090821  43.4000542  11.4131467  39.4080840
  43.7675446  12.7376572  35.3971813  44.5147265  13.2497970  35.0878935
  44.0367036  12.4160625  36.2576207  42.0402097  15.2335113  32.3798767
  41.1313316  14.9494146  32.4771237  42.0697180  15.6534192  31.5202074
  47.2721364  18.8441703  36.1489935  46.8183691  18.0032613  36.2055125
  46.6415331  19.4803101  36.4864715  46.2154283   9.7733689  37.3790602
  45.4777040   9.2611075  37.7100845  46.4681057   9.3334070  36.5673879
  45.7154303  20.6818199  37.0839753  46.0077278  21.2423256  36.3652119
  46.2252924  20.9746760  37.8392912  46.3165911   2.5509941  37.9732372
  46.6224788   1.6907304  37.6858287  47.0418516   3.1427561  37.7731365
  32.6090267  12.9540627  36.3613969  32.4114667  12.3609988  35.6365036
  32.0536931  12.6492838  37.0789908  40.5886991  12.8463734  38.4808563
  40.6435600  11.8937570  38.4051039  39.7778193  13.0023173  38.9649861
  41.7378184  16.7743857  29.7186846  41.2997614  16.0579716  29.2592483
  42.4788625  17.0019972  29.1571937  38.5279350  11.4640794  36.2398941
  37.7147216  11.7634964  36.6464134  39.0238345  11.0696482  36.9573424
  40.6787928  21.4598550  38.1733206  40.6364107  21.6859397  37.2441738
  41.5950627  21.2261925  38.3219007  44.1253562  11.9282618  45.0713835
  44.4802950  12.1554091  45.9308301  44.7725693  12.2600995  44.4491091
  49.8551299  15.0501054  35.7763164  49.7169198  15.2402650  34.8484354
  49.4987518  15.8120437  36.2331216  38.0193425   9.0359149  41.8560176
  38.6592805   8.8947908  41.1583140  37.1870956   8.7493662  41.4798778
  49.8820679  17.1177581  40.7874436  50.3157185  17.0252870  41.6357490
  50.5952259  17.0935081  40.1494452  38.7953729  18.3361579  37.9695169
  39.5894328  17.8411900  37.7677744  38.0845422  17.8079443  37.6062874
  43.6148574  20.7179675  42.3207536  43.6685596  21.2870611  43.0885252
  42.7463355  20.8881560  41.9561574  35.1036493  12.4804661  34.0454922
  34.1734081  12.4189117  34.2624884  35.1993965  11.9580614  33.2491563
  35.0222042   9.0059474  36.6333163  35.2828859   9.9204807  36.5242324
  35.8439214   8.5383917  36.7829776  36.4946967  10.4197231  43.8031988
  37.1670020  10.2114593  43.1544637  35.6676754  10.2219317  43.3637220
  50.7436228  17.1601282  43.3207321  50.9372118  18.0647092  43.5666596
  50.6436846  16.7008701  44.1545906  42.3972539   7.0459172  45.8197649
  41.7500454   7.7449122  45.7262125  43.1673554   7.4795316  46.1873897
  45.8051337  17.3108024  48.8948202  45.6536843  17.0818576  47.9778286
  45.7956016  18.2678626  48.9079547  42.5736673  14.8839937  43.8794468
  43.5028733  15.0351097  43.7063436  42.1527703  14.9723958  43.0243115
  41.3725005  18.9090601  41.6493006  41.2336091  18.5409386  42.5218944
  40.5839601  19.4238241  41.4776964  41.9673157  24.0099698  32.9918542
  42.1424913  23.5387741  33.8064165  41.2805945  24.6365464  33.2199803
  42.9230220  18.2872204  39.0381844  42.5880053  18.2472974  39.9339494
  42.4234166  17.6216920  38.5652254  36.8974464  13.6939834  44.5634425
  36.7594262  12.9620073  45.1645964  37.8079388  13.6048734  44.2818613
  45.8589412  15.6328239  29.3118903  45.2418583  14.9075067  29.2151956
  45.3905900  16.3937599  28.9685978  39.5256765  13.4059794  44.0518105
  40.2356383  12.7652986  44.0104723  39.4826073  13.6572688  44.9744285
  47.5143544  20.3427147  46.9724684  47.4556090  19.6586367  46.3055267
  47.9163062  21.0846137  46.5205310  38.2385699  10.3925011  45.8713744
  37.7023056   9.9415750  46.5235340  37.6502407  10.5270920  45.1284208
  36.5334242  27.1589061  39.7658403  36.7730841  27.7907585  40.4437421
  35.6903439  26.8077101  40.0523762  37.6487958   9.8513663  28.4340208
  36.7717424   9.7302464  28.0702454  38.1245711   9.0599741  28.1819096
  47.5160951  18.3066731  45.2038663  46.6287730  17.9692653  45.3265062
  48.0859502  17.5749762  45.4407429  29.1690098  14.6390823  38.5281715
  29.8561138  14.3252553  37.9402730  29.0138227  15.5432187  38.2548966
  33.9724820   9.5281019  42.9566739  33.8883009   8.9206689  42.2217148
  33.1507527  10.0190037  42.9576235  41.0462104  22.9668183  42.1699907
  40.9732276  23.7723155  42.6819211  40.6039497  23.1660149  41.3447928
  40.8351884  22.2039953  35.6802728  40.0519406  22.7461633  35.7740953
  41.5344629  22.7213933  36.0796969  44.1448534   8.0134583  38.3236934
  44.6417234   7.2604545  38.0038004  43.3735515   8.0498899  37.7580143
  51.9978291  13.7174948  39.9655225  51.9868168  14.5999664  39.5949158
  51.1295671  13.3646499  39.7709762  43.5060788  22.8655017  44.3258065
  44.2188760  23.5002482  44.2533967  43.0150816  22.9618883  43.5098067
  45.2278315  16.7706270  35.8975357  44.2934593  16.8907732  35.7280061
  45.4054983  15.8678737  35.6335367  40.7283503  10.1551966  38.0508618
  40.3581290   9.6023006  38.7389524  41.2242595   9.5510099  37.4983618
  48.6150866  12.6123589  36.4325391  49.0811318  13.4451581  36.3585694
  49.0658367  12.1468571  37.1370650  38.5572701  20.6149461  45.1463636
  39.2582161  21.2485944  45.2993030  38.0867816  20.9564192  44.3859275
  46.6827097  18.9567410  33.4311543  46.9586941  18.8424005  34.3405417
  45.8131596  18.5584895  33.3923716  46.5867529   4.9804176  40.4716292
  45.6730609   5.2108403  40.6398499  47.0160630   5.0642620  41.3230325
  46.3573987  13.1694068  42.9716186  45.7045438  13.4169976  42.3168639
  46.7354367  12.3558206  42.6378664  43.3181161  23.2053761  37.0744357
  43.5003556  22.3875417  37.5372109  44.1414147  23.4221454  36.6369247
  43.6523327  22.1321946  34.3359405  44.1811093  21.6214401  33.7229567
  43.9151546  21.8164477  35.2004938  42.4061560  13.9113879  49.4582224
  41.7302197  13.8108008  50.1284599  43.2289194  13.7553093  49.9218221
  34.1540419  20.1485816  42.0794739  34.7393856  19.4029504  42.2122643
  33.9565258  20.4589772  42.9631403  37.0079075  23.1837063  37.0957181
  36.3389450  23.6683191  36.6121221  36.8691944  23.4306284  38.0100560
  28.7458074  12.7191416  40.7999182  28.7842174  12.1855007  41.5936300
  28.2398367  12.1926621  40.1810159  41.1484343  25.2180807  43.6939840
  41.7002651  25.3812428  44.4588925  41.4890537  25.8085244  43.0219864
  36.1248836   7.5655956  44.2961724  36.1890163   8.4270787  43.8839122
  36.0615957   6.9529958  43.5634083  35.6001109   9.6379089  47.9434759
  36.2273148   9.2556166  48.5572283  34.7429028   9.4193291  48.3090451
  45.9995218  20.0442064  49.5488494  46.5435121  20.6572022  49.0543449
  45.4182062  20.6021643  50.0655507  32.3766652  11.4455518  33.8753113
  32.6720093  10.5366196  33.8220167  31.4754687  11.4243258  33.5534116
  44.2852730  23.1662782  40.6803522  44.1603870  22.3652522  40.1714467
  44.9431822  23.6608976  40.1917492  35.9060899   9.5211515  39.8580662
  35.1847484  10.1347482  39.7188135  36.6954154  10.0569279  39.7797308
  46.3487639  20.9671802  42.3083072  45.4017974  20.8477153  42.2361399
  46.6970412  20.0794300  42.3909333  38.7087212   6.8565941  46.1321314
  39.2321614   7.1028238  46.8947623  38.4899545   7.6885976  45.7124451
  34.1054493   9.1269616  33.9992438  33.7767199   8.2466995  33.8167544
  34.4593864   9.0717284  34.8868828  43.3534072  20.7624518  38.5087424
  43.2059035  19.8341226  38.6894994  44.1787566  20.7844609  38.0244499
  37.2196316   9.4142586  34.3667916  37.5592389   9.9428507  33.6446525
  37.6668437   9.7522992  35.1426483  46.9568194  21.5853077  39.5952297
  47.8814741  21.3795939  39.4576748  46.7883497  21.3369478  40.5041638
  39.9139757   7.7979636  43.8170984  39.5736578   6.9987449  44.2191664
  39.2078764   8.0981347  43.2447817  40.5656229   4.8828949  42.2698307
  41.3882298   4.4089427  42.1477198  40.8094293   5.6619432  42.7696994
  39.2064464   7.9117207  32.5661209  39.9272826   8.2898460  32.0624926
  38.5829768   8.6306084  32.6696187  43.3495586   8.6162356  33.5019541
  43.5659201   9.4986994  33.2008369  42.8689654   8.2248569  32.7725183
  38.0894808  11.5748069  40.0790286  37.9439389  11.8888372  40.9714567
  37.6120011  12.1932970  39.5261185  39.9491191   8.5650617  40.1271175
  39.9352759   7.6691711  39.7903473  40.6663619   8.5721281  40.7609461
  41.8017321   8.9987958  42.1724303  41.5435099   9.9205028  42.1708633
  41.2702362   8.6018392  42.8624767  46.7463510  22.1038745  34.9514388
  46.9200388  21.5385167  34.1988241  47.2392401  22.9039640  34.7693878
  32.5640470  14.1153414  43.0177947  32.0193938  14.8913222  43.1498221
  33.4419820  14.4624218  42.8597068  39.3528087   7.4464998  35.3958746
  39.4743998   6.5181644  35.5949633  39.0630129   7.4603684  34.4837061
  42.2219277   5.1319908  38.5325465  42.2440974   5.1959241  37.5777445
  42.6387336   4.2924417  38.7265972  52.6002901  14.8675168  36.5704688
  53.0434047  14.1182493  36.1723811  51.7229412  14.8585304  36.1878420
  47.7338683  21.4205509  32.0511287  48.4289587  22.0412202  32.2698601
  48.0761833  20.5700860  32.3263664  33.3506492  13.2423310  45.9108104
  32.6088228  13.3905945  46.4972734  33.0299236  13.5031576  45.0474853
  49.6330106  18.8705215  33.5798617  50.1581430  19.2092487  32.8547937
  49.5452458  17.9352230  33.3961752  41.2950154  22.7839288  45.7088494
  41.6037281  22.5388435  46.5811194  42.0925637  22.9885927  45.2207364
  41.3170767  24.9377198  37.9393870  40.8775757  24.4453577  38.6326727
  42.0678884  24.3950165  37.6985946  33.7963106  21.1288739  37.9418499
  34.6221125  20.8292511  37.5617142  33.4457158  20.3596361  38.3908287
  38.7644639  20.4815207  40.0116172  38.1424648  19.8185912  39.7118400
  39.4349506  20.5076339  39.3289820  31.9971711  19.0475065  38.9007432
  31.1603619  18.6197240  38.7191433  31.9695356  19.2407508  39.8378223
  38.8369166   8.9596995  49.6048678  38.8857322   9.8359118  49.2226448
  39.3791680   8.4174388  49.0320321  49.3224012  19.5038118  48.8849815
  48.5319556  19.4862257  48.3454315  49.0857366  20.0426412  49.6398852
  49.4421887  16.3530585  46.1982544  49.4919892  16.1880592  47.1398067
  49.3335810  15.4857844  45.8080425  38.3258146  19.0319130  33.4874633
  38.4746266  19.7154595  32.8341305  39.1324589  19.0124220  34.0024088
  46.7325649  12.3361513  47.5141850  47.6335512  12.1967977  47.2225848
  46.8073624  12.5015967  48.4540028  41.0668455   9.7128367  46.3595037
  40.1971764  10.0061933  46.0877625  41.3027935  10.2968812  47.0802300
  50.9440084  18.7727526  46.4424565  50.6524892  19.1357507  47.2788026
  50.3312215  18.0594534  46.2637897  52.1435766  16.3380406  38.9627136
  52.9782657  16.7770210  39.1264696  52.2794895  15.8619059  38.1435381
  49.1927272  13.8960141  44.9104623  49.6681394  14.0887787  44.1023475
  48.2692837  13.9519327  44.6648007  36.0810779  15.0584308  34.4935702
  35.8356821  14.1546638  34.6915912  36.2506693  15.0601458  33.5515180
  43.7707488   5.9307984  43.8760457  44.2889432   6.6669011  43.5506946
  43.4162621   6.2371978  44.7107216  35.3506426  10.7912665  31.9921863
  34.6575671  10.8657020  31.3361899  35.1058178  10.0273009  32.5143380
  44.0220083   2.3508267  39.3961354  44.3021836   1.6831456  40.0221780
  44.8070690   2.5437362  38.8836018  41.8253551  21.5267261  30.9586380
  41.2527518  22.1457448  30.5056852  42.3986345  22.0766622  31.4926302
  47.8928941  10.7725901  43.1432929  48.8446364  10.8723998  43.1645153
  47.7232391   9.9804169  43.6531013  45.9143320   7.8581484  43.3292330
  45.3193253   8.1386497  42.6338818  45.6293017   8.3475385  44.1009071
  45.0450811  21.8104411  32.0894962  45.9781484  21.7449973  32.2927838
  44.9574024  22.6460678  31.6309495  47.6738828  21.1270281  29.0498910
  47.5952459  20.7930145  29.9434668  48.4948494  21.6192049  29.0490382
  50.3717019  13.9932020  42.2575229  50.3393339  13.0548021  42.4434912
  50.9817642  14.0716057  41.5241053  42.2100350  12.8628073  28.3002433
  43.1559454  12.7334282  28.3690851  41.8314595  12.1242735  28.7771861
  50.5211507  10.7843064  42.3033512  50.0050556  10.0001521  42.1163441
  51.4051456  10.4561781  42.4680031  48.1822234   4.5284079  38.2629324
  47.9847055   4.2199168  39.1472656  48.7921940   5.2545718  38.3927254
  56.1893569  15.0548027  41.3981265  56.9196957  14.7933315  41.9588969
  55.5800514  14.3176749  41.4383333  54.2708866  13.1955890  41.9955717
  53.5442029  13.0611855  41.3872208  53.8556153  13.5032719  42.8012435
  42.0939042  16.9145820  49.7603090  43.0142052  17.0924419  49.9543136
  42.0588625  15.9701865  49.6082789  40.3943267  10.7878050  28.2357318
  39.4874722  10.4911163  28.3120031  40.6719248  10.4907868  27.3691604
  31.3121207  12.1084413  38.6856364  30.9923992  11.2549721  38.3930738
  30.7654635  12.3232991  39.4414332  35.0901115  14.8246854  42.4025871
  35.3087124  15.7563962  42.4213905  35.5026889  14.4654829  43.1880675
  42.0105333   5.3314940  34.3901559  41.2006061   4.9862025  34.7656805
  42.6989749   5.0222483  34.9789171  43.9395881   4.4092986  36.0125856
  44.4926919   4.8288440  36.6715879  44.1765967   3.4828734  36.0548812
  39.9628980  10.3980060  51.7928620  39.8625707  11.3474417  51.7240711
  39.7450522  10.0698299  50.9204690  39.1642051   7.6464985  28.3769297
  40.0261215   7.9719883  28.6365114  39.3492396   6.8596481  27.8642363
  31.1809467  15.7287325  40.6549486  30.4872939  15.3141278  40.1419440
  31.9282458  15.7707861  40.0582905  47.3174688   6.5193512  35.5204520
  46.7373357   7.1778316  35.1382572  47.0510621   5.6970856  35.1091938
  45.7678254   5.9198569  37.7225840  46.2678033   6.0315104  36.9140159
  46.4113862   5.6159622  38.3626649  39.8260250  13.8277199  50.6093681
  39.3427332  14.6277559  50.8157570  39.9121189  13.8385144  49.6561125
  33.0946210  15.6605579  38.5315501  33.0716898  15.7593266  37.5797384
  33.4046846  16.5070729  38.8532667  35.7533588  17.7181734  42.6462115
  36.7076841  17.6865676  42.5792047  35.5546111  17.2572357  43.4612341
  36.3432970  16.2882850  45.2132913  37.1625859  16.7826928  45.2367750
  36.6169777  15.3714818  45.1850480  46.0999566   8.6793602  34.5760868
  45.2125421   8.9643253  34.3581063  46.5153555   8.5187365  33.7288145
  49.4514102   8.7040123  38.2915208  50.2274492   9.1936575  38.5639824
  48.7262236   9.1298177  38.7487077  51.8886661   9.4167742  39.3489148
  52.4831151   9.1763478  38.6382456  51.9613244   8.6974873  39.9762684
  34.1083816  23.2601353  39.6632313  33.9738284  22.5001754  39.0970311
  33.6915879  23.9842253  39.1961102  45.2442779  18.4438277  28.6708888
  45.9478629  18.6488279  29.2866544  44.5205428  19.0115038  28.9357972
  46.0740590  14.1948138  34.7911158  46.0175791  14.6516689  33.9518791
  46.6268932  13.4338822  34.6134001  49.8845396   9.9837870  35.6161278
  49.6282330   9.5834505  36.4469486  49.2598264  10.6981664  35.4911417
  54.1957733  12.7233943  38.1232569  53.6357291  12.7927132  38.8964131
  53.5901237  12.5474928  37.4032066  37.2652942  24.1570670  39.8750756
  37.1485326  25.1016103  39.7729446  36.4445389  23.8544232  40.2636555
  47.1529477  18.8820806  30.7207348  47.9875081  18.4502004  30.5384823
  46.9913820  18.7102819  31.6484243  46.8075369  15.3852919  32.0863688
  46.7524173  15.2197191  31.1452132  46.1821424  16.0928952  32.2425877
  31.5967884  10.6220983  45.9125110  32.2426748  10.1119937  46.4012335
  31.3885035  11.3589665  46.4868535  44.1221276  17.6901831  51.4117250
  44.9912436  17.8642483  51.0503885  43.6428028  18.5096248  51.2892980
  40.1171494   4.8861028  31.6649006  40.1050164   5.8302868  31.8217277
  41.0094916   4.7031174  31.3708467  38.2907456  24.8098932  43.0906684
  39.1934703  24.8422542  43.4073179  38.0644826  23.8799383  43.1053020
  40.0461058  23.5629919  39.7516763  39.0956689  23.5631780  39.6381135
  40.3493545  22.8162653  39.2352797  43.9323614   1.4803805  35.9194943
  43.1656010   0.9262291  36.0651625  44.3434319   1.5525674  36.7809094
  35.9365375   7.7688601  50.0100124  36.7996836   7.4125405  50.2203449
  35.3630786   7.4302495  50.6975528  55.7813752  29.3990457  40.8162525
  56.4192162  29.2797204  40.1125865  55.6634595  30.3471301  40.8750477
  52.5903458  29.3517885  40.7524050  52.2521970  29.2358950  39.8644585
  53.4593226  28.9509050  40.7325056  48.4490274  31.2053361  36.7420941
  47.8855139  31.1143298  35.9737228  48.3342669  30.3853266  37.2223433
  53.0723241  30.5052737  46.7110255  53.0611882  30.1105535  45.8390759
  53.2343881  29.7718809  47.3044027  45.9954706  32.7004553  39.5805161
  46.7875998  32.3595378  39.1651460  46.2351356  32.8099528  40.5007314
  54.0289833  34.8724329  32.0535406  53.3777812  35.4578410  31.6669419
  54.8234195  35.4030524  32.1130443  47.9545460  31.9613466  32.4522540
  48.7276336  31.4142453  32.3135416  48.3070859  32.8257716  32.6637001
  49.7930502  33.2889849  45.6589439  49.5020368  34.1935479  45.5436106
  50.4287487  33.3306376  46.3733509  50.7186709  30.6666697  42.2490799
  51.3150281  30.4422719  41.5347762  50.7761681  29.9251443  42.8516247
  50.2911738  28.1206132  30.0840990  50.5437258  27.5987654  29.3224453
  49.3536297  27.9572278  30.1867673  55.3355020  27.1241911  37.8915733
  56.1218110  26.7061334  37.5406150  55.5993725  28.0288003  38.0597381
  55.5065098  32.5614761  32.5904390  54.8710931  32.6349388  33.3025295
  55.1762504  33.1508360  31.9123469  60.7363447  27.0617144  38.7948712
  61.4688619  26.4916361  39.0286541  59.9802803  26.6738744  39.2355217
  50.0108026  30.0234238  32.2865365  49.8944284  29.3479142  32.9546449
  50.1210286  29.5366612  31.4697518  52.3539567  29.4844385  35.9912054
  51.9897774  28.9575006  36.7024976  53.2106683  29.0942854  35.8178539
  58.2588868  20.7738718  43.2543320  57.9272193  21.6434129  43.0304535
  57.6634481  20.4575002  43.9337351  51.9945054  24.5134285  30.9873403
  52.1619457  25.3814522  31.3543874  51.8042223  24.6761567  30.0634692
  54.7520387  32.9751264  42.6539233  54.4521110  33.8776303  42.5455040
  54.4071447  32.7083447  43.5060386  48.2032869  29.4265061  38.6875937
  47.2783365  29.2941275  38.8953629  48.4517282  30.2059280  39.1845880
  58.1517531  25.4933804  40.3336670  57.2434408  25.4249213  40.0395431
  58.1005127  25.9705749  41.1618496  51.9734275  26.9691943  31.9720069
  51.8533900  27.4148993  32.8105550  51.2786863  27.3177260  31.4133608
  45.5641680  29.0698334  39.5219726  45.6934061  29.3232813  40.4359138
  44.8839131  29.6626042  39.2024382  49.7341167  39.7395584  35.6210201
  49.6565197  40.6903409  35.6998681  49.1302811  39.3941457  36.2785127
  52.2258397  26.9123450  48.2771568  51.4491731  27.4717370  48.2674432
  52.8648960  27.3980233  48.7986438  60.0179178  23.6950243  42.1114544
  59.3753558  23.9882776  41.4654339  59.5134106  23.5803163  42.9167741
  57.6719341  27.4413416  32.8000403  58.5837197  27.6740803  32.6248101
  57.1628988  28.0250460  32.2375482  50.4804769  29.7208903  47.8389535
  51.2219454  30.2593947  47.5624358  49.7741755  30.3475192  47.9961086
  55.9560109  31.8638044  46.4361696  56.3643465  31.4220454  45.6916328
  55.2337370  31.2890671  46.6895889  52.3091179  26.8010650  43.8095253
  53.1552374  27.2250064  43.9529902  52.2489817  26.1444275  44.5033816
  56.2788924  32.4239234  40.1913985  55.6497786  32.5884948  39.4890053
  55.8914586  32.8380844  40.9624949  60.1578155  33.3593672  37.5458349
  59.4729194  33.7392573  36.9955382  60.2422005  33.9688999  38.2790296
  55.4590624  24.4615019  45.4676427  55.2151556  25.2157079  44.9310702
  55.7350555  24.8400366  46.3023674  57.4129087  31.0053631  44.1453692
  57.6245982  31.6485391  43.4688073  57.3658835  30.1715948  43.6775622
  55.0155316  23.6171452  41.0490264  54.1539795  23.9152705  41.3407002
  55.0417751  23.8341851  40.1171297  51.8316885  32.1613642  37.4564070
  52.2955231  32.4401345  36.6668693  51.5673684  31.2597087  37.2737161
  48.7240966  31.7085124  40.3943833  49.2942324  32.1372392  39.7561318
  49.3149078  31.4267709  41.0928019  50.7685771  28.2836795  34.2653635
  51.4709815  28.7357838  34.7327562  50.4366400  27.6420614  34.8933528
  49.2166133  26.8748551  48.6404845  48.5864794  27.5564832  48.8740241
  49.1102221  26.7631633  47.6957983  44.5111105  26.5420347  39.5670769
  43.7210159  26.7977876  39.0910879  45.0022353  27.3568685  39.6722809
  58.5274915  33.8825587  42.3176050  59.3492359  33.4805774  42.0358731
  58.5237318  33.7793821  43.2692165  46.4625851  26.9064927  36.5254245
  45.6657014  27.0183621  37.0437741  46.2351443  27.2451579  35.6595136
  52.2931518  33.4309630  44.4736760  52.3575951  33.8930037  45.3094932
  51.5842442  32.8006995  44.6019070  42.7948808  26.7950838  41.9985760
  43.0456847  27.6797848  42.2643335  43.3308357  26.6155439  41.2260851
  66.6180908  30.2264335  38.6661021  65.8644616  29.6571733  38.5105025
  66.7528449  30.1927000  39.6131656  52.0079536  35.0977737  34.3415740
  51.8725211  35.9429273  34.7700588  52.5489349  35.2997015  33.5781674
  48.4946876  21.1769317  51.0030096  48.1013821  20.6235516  51.6777740
  49.3113016  21.4879896  51.3936613  45.4608933  32.6153175  34.9143665
  45.9733454  33.4096426  35.0649230  46.1131646  31.9179466  34.8477267
  47.2703818  35.7318932  36.9966419  47.4470447  36.6536896  36.8087403
  48.0660652  35.4177351  37.4260798  51.4114837  22.5927196  48.5950352
  52.1524550  23.1934349  48.5154815  51.6432760  21.8504834  48.0368395
  46.5556175  27.7783564  46.8728582  46.4409690  26.8768821  47.1735681
  45.7000692  28.0247260  46.5213398  53.6348012  35.7201304  48.4716082
  53.1911867  34.9337682  48.1536987  54.2965226  35.9080454  47.8059973
  55.7329251  36.0004104  46.4997484  55.7147726  36.8212985  46.0077753
  56.6549171  35.8758179  46.7247625  52.1902305  33.5148233  47.3420992
  52.7230641  32.7536521  47.1120300  51.6616386  33.2221885  48.0845147
  55.3572000  18.6208299  42.8714634  55.0136269  19.5109941  42.7953744
  55.7250962  18.4309957  42.0084219  43.4257850  30.9441830  35.6903236
  44.2633072  31.3538838  35.4736944  43.6036118  30.0041272  35.6603430
  55.3222282  28.6116910  31.3787069  54.8068906  29.3821515  31.6175456
  55.0499591  27.9382046  32.0020130  52.9069393  23.4566611  36.4372307
  52.0510990  23.0673462  36.2577946  53.3196345  23.5358572  35.5772093
  54.4368540  20.9912954  40.8363867  53.9333336  20.9543090  40.0231672
  54.7299147  21.9005697  40.8960524  50.6811426  21.0751684  39.8430049
  51.5464423  20.8794493  39.4835938  50.7488935  20.8462036  40.7699406
  60.2956557  31.3649265  33.3140242  59.5185999  31.0260424  32.8695405
  60.9748037  31.3701888  32.6395207  55.1108586  26.4844002  33.2046850
  54.8058721  26.7990152  34.0556993  56.0639028  26.5625422  33.2474183
  53.5555017  32.6434226  34.8539804  53.0276379  31.9086985  34.5413042
  53.0542520  33.4208902  34.6079772  58.5347863  30.8383246  39.9706850
  57.8771538  31.5282508  40.0586979  59.3388263  31.2279678  40.3140837
  48.2873745  23.3053892  37.2146416  48.8617497  23.0829074  36.4819609
  48.8744727  23.3742587  37.9675017  57.3453322  29.1927619  38.0210792
  57.8585204  29.8257611  38.5232502  57.9954546  28.5928814  37.6554152
  48.6143332  25.3358353  31.2342301  47.7780644  25.6733040  31.5551576
  48.4748102  25.2007333  30.2969438  50.5896413  20.1795141  35.9421485
  49.9360825  19.8644158  35.3178100  50.5476887  19.5570881  36.6681308
  51.7007618  30.4614436  27.8574777  50.7934679  30.2303689  28.0565926
  52.1978650  29.6652055  28.0448759  54.6075696  39.1711943  30.7771463
  53.9337395  39.4743640  31.3856421  54.9941518  39.9741024  30.4276920
  53.8234153  26.6677074  40.2669133  52.9056714  26.8892021  40.1090821
  54.2394297  26.7423385  39.4080840  54.6069201  28.0668490  35.3971813
  55.3541020  28.5789887  35.0878935  54.8760790  27.7452543  36.2576207
  52.8795851  30.5627031  32.3798767  51.9707070  30.2786064  32.4771237
  52.9090935  30.9826109  31.5202074  58.1115118  34.1733620  36.1489935
  57.6577446  33.3324530  36.2055125  57.4809085  34.8095019  36.4864715
  57.0548038  25.1025606  37.3790602  56.3170795  24.5902993  37.7100845
  57.3074812  24.6625988  36.5673879  56.5548058  36.0110117  37.0839753
  56.8471032  36.5715174  36.3652119  57.0646678  36.3038678  37.8392912
  57.1559665  17.8801858  37.9732372  57.4618542  17.0199222  37.6858287
  57.8812270  18.4719479  37.7731365  43.4484021  28.2832545  36.3613969
  43.2508421  27.6901906  35.6365036  42.8930685  27.9784755  37.0789908
  51.4280745  28.1755651  38.4808563  51.4829355  27.2229488  38.4051039
  50.6171947  28.3315091  38.9649861  52.5771939  32.1035775  29.7186846
  52.1391369  31.3871633  29.2592483  53.3182380  32.3311889  29.1571937
  49.3673105  26.7932711  36.2398941  48.5540971  27.0926882  36.6464134
  49.8632099  26.3988400  36.9573424  51.5181683  36.7890468  38.1733206
  51.4757862  37.0151314  37.2441738  52.4344382  36.5553843  38.3219007
  54.9647317  27.2574536  45.0713835  55.3196704  27.4846009  45.9308301
  55.6119448  27.5892912  44.4491091  60.6945054  30.3792972  35.7763164
  60.5562952  30.5694568  34.8484354  60.3381272  31.1412354  36.2331216
  48.8587180  24.3651067  41.8560176  49.4986559  24.2239826  41.1583140
  48.0264710  24.0785580  41.4798778  60.7214433  32.4469499  40.7874436
  61.1550940  32.3544788  41.6357490  61.4346014  32.4226999  40.1494452
  49.6347484  33.6653497  37.9695169  50.4288082  33.1703817  37.7677744
  48.9239176  33.1371360  37.6062874  54.4542328  36.0471593  42.3207536
  54.5079350  36.6162529  43.0885252  53.5857109  36.2173478  41.9561574
  45.9430247  27.8096579  34.0454922  45.0127835  27.7481034  34.2624884
  46.0387719  27.2872532  33.2491563  45.8615796  24.3351392  36.6333163
  46.1222613  25.2496725  36.5242324  46.6832968  23.8675834  36.7829776
  47.3340721  25.7489149  43.8031988  48.0063775  25.5406511  43.1544637
  46.5070508  25.5511235  43.3637220  61.5829983  32.4893199  43.3207321
  61.7765873  33.3939010  43.5666596  61.4830601  32.0300618  44.1545906
  53.2366293  22.3751090  45.8197649  52.5894209  23.0741039  45.7262125
  54.0067309  22.8087234  46.1873897  56.6445091  32.6399942  48.8948202
  56.4930598  32.4110494  47.9778286  56.6349771  33.5970543  48.9079547
  53.4130428  30.2131855  43.8794468  54.3422488  30.3643014  43.7063436
  52.9921458  30.3015876  43.0243115  52.2118760  34.2382519  41.6493006
  52.0729845  33.8701304  42.5218944  51.4233356  34.7530159  41.4776964
  52.8066912  39.3391616  32.9918542  52.9818667  38.8679659  33.8064165
  52.1199700  39.9657382  33.2199803  53.7623975  33.6164122  39.0381844
  53.4273807  33.5764892  39.9339494  53.2627920  32.9508838  38.5652254
  47.7368219  29.0231752  44.5634425  47.5988017  28.2911991  45.1645964
  48.6473142  28.9340652  44.2818613  56.6983166  30.9620156  29.3118903
  56.0812337  30.2366984  29.2151956  56.2299655  31.7229516  28.9685978
  50.3650519  28.7351711  44.0518105  51.0750138  28.0944903  44.0104723
  50.3219828  28.9864606  44.9744285  58.3537298  35.6719065  46.9724684
  58.2949844  34.9878285  46.3055267  58.7556816  36.4138055  46.5205310
  49.0779453  25.7216929  45.8713744  48.5416810  25.2707668  46.5235340
  48.4896162  25.8562838  45.1284208  47.3727997  42.4880978  39.7658403
  47.6124595  43.1199503  40.4437421  46.5297193  42.1369018  40.0523762
  48.4881712  25.1805581  28.4340208  47.6111179  25.0594381  28.0702454
  48.9639465  24.3891659  28.1819096  58.3554705  33.6358648  45.2038663
  57.4681484  33.2984570  45.3265062  58.9253256  32.9041680  45.4407429
  40.0083852  29.9682740  38.5281715  40.6954892  29.6544470  37.9402730
  39.8531981  30.8724105  38.2548966  44.8118575  24.8572937  42.9566739
  44.7276763  24.2498606  42.2217148  43.9901281  25.3481955  42.9576235
  51.8855859  38.2960101  42.1699907  51.8126030  39.1015072  42.6819211
  51.4433252  38.4952067  41.3447928  51.6745638  37.5331871  35.6802728
  50.8913160  38.0753551  35.7740953  52.3738384  38.0505851  36.0796969
  54.9842288  23.3426500  38.3236934  55.4810988  22.5896463  38.0038004
  54.2129270  23.3790817  37.7580143  62.8372046  29.0466866  39.9655225
  62.8261922  29.9291581  39.5949158  61.9689425  28.6938417  39.7709762
  54.3454542  38.1946935  44.3258065  55.0582514  38.8294400  44.2533967
  53.8544571  38.2910801  43.5098067  56.0672069  32.0998188  35.8975357
  55.1328348  32.2199650  35.7280061  56.2448738  31.1970654  35.6335367
  51.5677257  25.4843883  38.0508618  51.1975045  24.9314924  38.7389524
  52.0636350  24.8802017  37.4983618  59.4544621  27.9415507  36.4325391
  59.9205073  28.7743498  36.3585694  59.9052121  27.4760488  37.1370650
  49.3966456  35.9441378  45.1463636  50.0975915  36.5777861  45.2993030
  48.9261571  36.2856110  44.3859275  57.5220852  34.2859328  33.4311543
  57.7980696  34.1715923  34.3405417  56.6525350  33.8876813  33.3923716
  57.4261283  20.3096094  40.4716292  56.5124363  20.5400321  40.6398499
  57.8554385  20.3934538  41.3230325  57.1967742  28.4985986  42.9716186
  56.5439192  28.7461893  42.3168639  57.5748122  27.6850124  42.6378664
  54.1574916  38.5345679  37.0744357  54.3397310  37.7167335  37.5372109
  54.9807902  38.7513371  36.6369247  54.4917081  37.4613864  34.3359405
  55.0204848  36.9506319  33.7229567  54.7545301  37.1456394  35.2004938
  53.2455315  29.2405797  49.4582224  52.5695952  29.1399926  50.1284599
  54.0682949  29.0845011  49.9218221  44.9934174  35.4777733  42.0794739
  45.5787611  34.7321421  42.2122643  44.7959012  35.7881690  42.9631403
  47.8472829  38.5128981  37.0957181  47.1783204  38.9975108  36.6121221
  47.7085699  38.7598201  38.0100560  39.5851829  28.0483334  40.7999182
  39.6235928  27.5146924  41.5936300  39.0792121  27.5218539  40.1810159
  51.9878098  40.5472724  43.6939840  52.5396406  40.7104346  44.4588925
  52.3284291  41.1377162  43.0219864  46.9642591  22.8947874  44.2961724
  47.0283917  23.7562705  43.8839122  46.9009711  22.2821876  43.5634083
  46.4394863  24.9671007  47.9434759  47.0666902  24.5848084  48.5572283
  45.5822782  24.7485209  48.3090451  56.8388972  35.3733982  49.5488494
  57.3828876  35.9863940  49.0543449  56.2575817  35.9313560  50.0655507
  43.2160406  26.7747436  33.8753113  43.5113847  25.8658114  33.8220167
  42.3148442  26.7535175  33.5534116  55.1246485  38.4954700  40.6803522
  54.9997624  37.6944440  40.1714467  55.7825576  38.9900893  40.1917492
  46.7454653  24.8503432  39.8580662  46.0241239  25.4639400  39.7188135
  47.5347909  25.3861197  39.7797308  57.1881393  36.2963720  42.3083072
  56.2411729  36.1769071  42.2361399  57.5364166  35.4086218  42.3909333
  49.5480967  22.1857859  46.1321314  50.0715369  22.4320155  46.8947623
  49.3293300  23.0177894  45.7124451  44.9448248  24.4561533  33.9992438
  44.6160954  23.5758912  33.8167544  45.2987618  24.4009202  34.8868828
  54.1927827  36.0916436  38.5087424  54.0452789  35.1633144  38.6894994
  55.0181320  36.1136527  38.0244499  48.0590071  24.7434503  34.3667916
  48.3986143  25.2720424  33.6446525  48.5062191  25.0814909  35.1426483
  57.7961948  36.9144995  39.5952297  58.7208496  36.7087856  39.4576748
  57.6277252  36.6661396  40.5041638  50.7533512  23.1271554  43.8170984
  50.4130332  22.3279367  44.2191664  50.0472518  23.4273265  43.2447817
  51.4049984  20.2120866  42.2698307  52.2276053  19.7381345  42.1477198
  51.6488047  20.9911350  42.7696994  50.0458218  23.2409125  32.5661209
  50.7666581  23.6190378  32.0624926  49.4223522  23.9598002  32.6696187
  54.1889341  23.9454274  33.5019541  54.4052955  24.8278912  33.2008369
  53.7083408  23.5540487  32.7725183  48.9288562  26.9039987  40.0790286
  48.7833143  27.2180290  40.9714567  48.4513766  27.5224887  39.5261185
  50.7884945  23.8942535  40.1271175  50.7746514  22.9983628  39.7903473
  51.5057373  23.9013199  40.7609461  52.6411076  24.3279875  42.1724303
  52.3828854  25.2496946  42.1708633  52.1096116  23.9310310  42.8624767
  57.5857265  37.4330662  34.9514388  57.7594142  36.8677085  34.1988241
  58.0786156  38.2331557  34.7693878  43.4034224  29.4445331  43.0177947
  42.8587693  30.2205139  43.1498221  44.2813574  29.7916136  42.8597068
  50.1921841  22.7756915  35.3958746  50.3137752  21.8473561  35.5949633
  49.9023884  22.7895601  34.4837061  53.0613032  20.4611826  38.5325465
  53.0834728  20.5251159  37.5777445  53.4781091  19.6216334  38.7265972
  63.4396656  30.1967085  36.5704688  63.8827802  29.4474410  36.1723811
  62.5623166  30.1877222  36.1878420  58.5732437  36.7497427  32.0511287
  59.2683342  37.3704119  32.2698601  58.9155587  35.8992778  32.3263664
  44.1900246  28.5715228  45.9108104  43.4481982  28.7197863  46.4972734
  43.8692991  28.8323493  45.0474853  60.4723860  34.1997132  33.5798617
  60.9975184  34.5384405  32.8547937  60.3846213  33.2644148  33.3961752
  52.1564521  40.2669116  37.9393870  51.7169511  39.7745494  38.6326727
  52.9072638  39.7242083  37.6985946  44.6356860  36.4580656  37.9418499
  45.4614880  36.1584428  37.5617142  44.2850912  35.6888279  38.3908287
  49.6038393  35.8107125  40.0116172  48.9818402  35.1477830  39.7118400
  50.2743260  35.8368256  39.3289820  42.8365465  34.3766983  38.9007432
  41.9997373  33.9489157  38.7191433  42.8089110  34.5699426  39.8378223
  49.6762921  24.2888913  49.6048678  49.7251076  25.1651035  49.2226448
  50.2185435  23.7466306  49.0320321  60.1617766  34.8330036  48.8849815
  59.3713310  34.8154175  48.3454315  59.9251121  35.3718330  49.6398852
  60.2815641  31.6822502  46.1982544  60.3313646  31.5172510  47.1398067
  60.1729565  30.8149761  45.8080425  49.1651900  34.3611048  33.4874633
  49.3140020  35.0446512  32.8341305  49.9718344  34.3416138  34.0024088
  57.5719404  27.6653430  47.5141850  58.4729267  27.5259895  47.2225848
  57.6467378  27.8307885  48.4540028  51.9062209  25.0420285  46.3595037
  51.0365519  25.3353851  46.0877625  52.1421689  25.6260730  47.0802300
  61.7833838  34.1019444  46.4424565  61.4918647  34.4649424  47.2788026
  61.1705970  33.3886452  46.2637897  62.9829521  31.6672324  38.9627136
  63.8176412  32.1062128  39.1264696  63.1188649  31.1910977  38.1435381
  60.0321026  29.2252058  44.9104623  60.5075148  29.4179705  44.1023475
  59.1086592  29.2811244  44.6648007  46.9204533  30.3876226  34.4935702
  46.6750575  29.4838556  34.6915912  47.0900448  30.3893376  33.5515180
  54.6101243  21.2599902  43.8760457  55.1283187  21.9960929  43.5506946
  54.2556376  21.5663895  44.7107216  46.1900181  26.1204583  31.9921863
  45.4969426  26.1948938  31.3361899  45.9451933  25.3564927  32.5143380
  54.8613837  17.6800184  39.3961354  55.1415591  17.0123374  40.0221780
  55.6464444  17.8729280  38.8836018  52.6647306  36.8559178  30.9586380
  52.0921273  37.4749366  30.5056852  53.2380099  37.4058540  31.4926302
  58.7322695  26.1017818  43.1432929  59.6840118  26.2015916  43.1645153
  58.5626146  25.3096087  43.6531013  56.7537075  23.1873402  43.3292330
  56.1587007  23.4678414  42.6338818  56.4686772  23.6767303  44.1009071
  55.8844565  37.1396329  32.0894962  56.8175239  37.0741890  32.2927838
  55.7967778  37.9752595  31.6309495  58.5132582  36.4562199  29.0498910
  58.4346214  36.1222062  29.9434668  59.3342249  36.9483967  29.0490382
  61.2110773  29.3223938  42.2575229  61.1787093  28.3839939  42.4434912
  61.8211397  29.4007975  41.5241053  53.0494104  28.1919991  28.3002433
  53.9953209  28.0626199  28.3690851  52.6708349  27.4534653  28.7771861
  61.3605262  26.1134982  42.3033512  60.8444310  25.3293438  42.1163441
  62.2445210  25.7853698  42.4680031  59.0215989  19.8575997  38.2629324
  58.8240810  19.5491085  39.1472656  59.6315694  20.5837636  38.3927254
  67.0287323  30.3839945  41.3981265  67.7590712  30.1225233  41.9588969
  66.4194269  29.6468667  41.4383333  65.1102620  28.5247808  41.9955717
  64.3835784  28.3903773  41.3872208  64.6949907  28.8324636  42.8012435
  52.9332797  32.2437737  49.7603090  53.8535806  32.4216336  49.9543136
  52.8982380  31.2993783  49.6082789  51.2337021  26.1169968  28.2357318
  50.3268477  25.8203080  28.3120031  51.5113002  25.8199786  27.3691604
  42.1514962  27.4376331  38.6856364  41.8317746  26.5841639  38.3930738
  41.6048390  27.6524909  39.4414332  45.9294869  30.1538772  42.4025871
  46.1480879  31.0855880  42.4213905  46.3420643  29.7946746  43.1880675
  52.8499087  20.6606857  34.3901559  52.0399815  20.3153942  34.7656805
  53.5383504  20.3514401  34.9789171  54.7789635  19.7384904  36.0125856
  55.3320674  20.1580357  36.6715879  55.0159722  18.8120652  36.0548812
  50.8022735  25.7271978  51.7928620  50.7019461  26.6766335  51.7240711
  50.5844277  25.3990217  50.9204690  50.0035806  22.9756903  28.3769297
  50.8654970  23.3011801  28.6365114  50.1886150  22.1888399  27.8642363
  42.0203222  31.0579242  40.6549486  41.3266693  30.6433195  40.1419440
  42.7676213  31.0999779  40.0582905  58.1568442  21.8485429  35.5204520
  57.5767111  22.5070233  35.1382572  57.8904375  21.0262774  35.1091938
  56.6072009  21.2490487  37.7225840  57.1071787  21.3607021  36.9140159
  57.2507617  20.9451540  38.3626649  50.6654005  29.1569117  50.6093681
  50.1821086  29.9569477  50.8157570  50.7514944  29.1677061  49.6561125
  43.9339964  30.9897496  38.5315501  43.9110652  31.0885183  37.5797384
  44.2440601  31.8362647  38.8532667  46.5927342  33.0473651  42.6462115
  47.5470596  33.0157594  42.5792047  46.3939866  32.5864275  43.4612341
  47.1826724  31.6174767  45.2132913  48.0019613  32.1118846  45.2367750
  47.4563532  30.7006735  45.1850480  56.9393320  24.0085520  34.5760868
  56.0519175  24.2935170  34.3581063  57.3547309  23.8479283  33.7288145
  60.2907857  24.0332041  38.2915208  61.0668247  24.5228493  38.5639824
  59.5655991  24.4590095  38.7487077  62.7280415  24.7459660  39.3489148
  63.3224906  24.5055396  38.6382456  62.8006999  24.0266790  39.9762684
  44.9477571  38.5893271  39.6632313  44.8132039  37.8293672  39.0970311
  44.5309633  39.3134171  39.1961102  56.0836534  33.7730194  28.6708888
  56.7872384  33.9780197  29.2866544  55.3599183  34.3406956  28.9357972
  56.9134344  29.5240056  34.7911158  56.8569546  29.9808607  33.9518791
  57.4662687  28.7630740  34.6134001  60.7239150  25.3129787  35.6161278
  60.4676084  24.9126423  36.4469486  60.0992018  26.0273581  35.4911417
  65.0351488  28.0525861  38.1232569  64.4751046  28.1219050  38.8964131
  64.4294991  27.8766845  37.4032066  48.1046697  39.4862588  39.8750756
  47.9879081  40.4308020  39.7729446  47.2839143  39.1836149  40.2636555
  57.9923231  34.2112723  30.7207348  58.8268835  33.7793922  30.5384823
  57.8307574  34.0394737  31.6484243  57.6469123  30.7144837  32.0863688
  57.5917927  30.5489108  31.1452132  57.0215179  31.4220870  32.2425877
  42.4361638  25.9512901  45.9125110  43.0820502  25.4411855  46.4012335
  42.2278790  26.6881583  46.4868535  54.9615031  33.0193749  51.4117250
  55.8306190  33.1934401  51.0503885  54.4821782  33.8388165  51.2892980
  50.9565249  20.2152946  31.6649006  50.9443919  21.1594786  31.8217277
  51.8488671  20.0323091  31.3708467  49.1301211  40.1390850  43.0906684
  50.0328458  40.1714460  43.4073179  48.9038581  39.2091301  43.1053020
  50.8854813  38.8921836  39.7516763  49.9350444  38.8923698  39.6381135
  51.1887299  38.1454571  39.2352797  54.7717368  16.8095722  35.9194943
  54.0049764  16.2554209  36.0651625  55.1828073  16.8817591  36.7809094
  46.7759129  23.0980518  50.0100124  47.6390591  22.7417323  50.2203449
  46.2024540  22.7594413  50.6975528  56.8348460  48.0296471  39.5805161
  57.6269752  47.6887295  39.1651460  57.0745110  48.1391446  40.5007314
  64.8683587  50.2016247  32.0535406  64.2171567  50.7870327  31.6669419
  65.6627950  50.7322442  32.1130443  58.7939214  47.2905384  32.4522540
  59.5670090  46.7434371  32.3135416  59.1464613  48.1549633  32.6637001
  61.1305492  43.4498050  30.0840990  61.3831013  42.9279571  29.3224453
  60.1930051  43.2864196  30.1867673  60.8501781  45.3526156  32.2865365
  60.7338039  44.6771059  32.9546449  60.9604041  44.8658530  31.4697518
  69.0982622  36.1030636  43.2543320  68.7665947  36.9726047  43.0304535
  68.5028236  35.7866920  43.9337351  62.8338809  39.8426203  30.9873403
  63.0013211  40.7106439  31.3543874  62.6435978  40.0053485  30.0634692
  59.0426623  44.7556979  38.6875937  58.1177120  44.6233193  38.8953629
  59.2911037  45.5351198  39.1845880  62.8128030  42.2983860  31.9720069
  62.6927655  42.7440911  32.8105550  62.1180618  42.6469178  31.4133608
  56.4035434  44.3990252  39.5219726  56.5327816  44.6524731  40.4359138
  55.7232886  44.9917960  39.2024382  63.0652151  42.2415367  48.2771568
  62.2885485  42.8009288  48.2674432  63.7042714  42.7272150  48.7986438
  61.3198524  45.0500821  47.8389535  62.0613208  45.5885865  47.5624358
  60.6135509  45.6767110  47.9961086  61.6079526  43.6128712  34.2653635
  62.3103569  44.0649756  34.7327562  61.2760154  42.9712531  34.8933528
  60.0559887  42.2040469  48.6404845  59.4258548  42.8856750  48.8740241
  59.9495975  42.0923551  47.6957983  55.3504860  41.8712265  39.5670769
  54.5603914  42.1269794  39.0910879  55.8416107  42.6860603  39.6722809
  57.3019605  42.2356844  36.5254245  56.5050769  42.3475539  37.0437741
  57.0745197  42.5743497  35.6595136  53.6342563  42.1242756  41.9985760
  53.8850601  43.0089765  42.2643335  54.1702111  41.9447357  41.2260851
  62.8473291  50.4269655  34.3415740  62.7118965  51.2721191  34.7700588
  63.3883103  50.6288933  33.5781674  59.3340630  36.5061235  51.0030096
  58.9407576  35.9527433  51.6777740  60.1506771  36.8171813  51.3936613
  56.3002688  47.9445093  34.9143665  56.8127209  48.7388343  35.0649230
  56.9525401  47.2471384  34.8477267  62.2508591  37.9219114  48.5950352
  62.9918305  38.5226267  48.5154815  62.4826514  37.1796752  48.0368395
  57.3949929  43.1075481  46.8728582  57.2803444  42.2060738  47.1735681
  56.5394447  43.3539178  46.5213398  66.1965754  33.9500217  42.8714634
  65.8530024  34.8401859  42.7953744  66.5644717  33.7601875  42.0084219
  54.2651605  46.2733747  35.6903236  55.1026827  46.6830756  35.4736944
  54.4429872  45.3333190  35.6603430  65.2762295  36.3204872  40.8363867
  64.7727090  36.2835007  40.0231672  65.5692901  37.2297615  40.8960524
  61.5205180  36.4043602  39.8430049  62.3858177  36.2086410  39.4835938
  61.5882689  36.1753954  40.7699406  59.1267499  38.6345810  37.2146416
  59.7011251  38.4120991  36.4819609  59.7138482  38.7034504  37.9675017
  59.4537087  40.6650271  31.2342301  58.6174399  41.0024957  31.5551576
  59.3141856  40.5299251  30.2969438  61.4290167  35.5087059  35.9421485
  60.7754580  35.1936076  35.3178100  61.3870641  34.8862799  36.6681308
  62.5401372  45.7906354  27.8574777  61.6328434  45.5595607  28.0565926
  63.0372404  44.9943973  28.0448759  63.7189605  45.8918949  32.3798767
  62.8100825  45.6077981  32.4771237  63.7484689  46.3118027  31.5202074
  67.9953420  33.2093776  37.9732372  68.3012297  32.3491140  37.6858287
  68.7206025  33.8011396  37.7731365  54.2877776  43.6124463  36.3613969
  54.0902176  43.0193823  35.6365036  53.7324440  43.3076673  37.0789908
  63.4165693  47.4327692  29.7186846  62.9785123  46.7163551  29.2592483
  64.1576134  47.6603807  29.1571937  60.2066859  42.1224629  36.2398941
  59.3934725  42.4218799  36.6464134  60.7025854  41.7280318  36.9573424
  59.6980934  39.6942984  41.8560176  60.3380314  39.5531744  41.1583140
  58.8658465  39.4077498  41.4798778  56.7824002  43.1388497  34.0454922
  55.8521590  43.0772952  34.2624884  56.8781474  42.6164449  33.2491563
  56.7009551  39.6643309  36.6333163  56.9616368  40.5788643  36.5242324
  57.5226723  39.1967752  36.7829776  58.1734476  41.0781067  43.8031988
  58.8457529  40.8698429  43.1544637  57.3464262  40.8803153  43.3637220
  64.0760048  37.7043008  45.8197649  63.4287963  38.4032957  45.7262125
  64.8461063  38.1379151  46.1873897  58.5761973  44.3523670  44.5634425
  58.4381771  43.6203908  45.1645964  59.4866897  44.2632570  44.2818613
  59.9173208  41.0508847  45.8713744  59.3810565  40.5999585  46.5235340
  59.3289916  41.1854756  45.1284208  59.3275467  40.5097498  28.4340208
  58.4504933  40.3886299  28.0702454  59.8033220  39.7183576  28.1819096
  50.8477607  45.2974658  38.5281715  51.5348647  44.9836388  37.9402730
  50.6925736  46.2016023  38.2548966  55.6512329  40.1864854  42.9566739
  55.5670518  39.5790524  42.2217148  54.8295036  40.6773873  42.9576235
  68.2655038  35.6388011  40.4716292  67.3518118  35.8692238  40.6398499
  68.6948139  35.7226456  41.3230325  64.9968670  53.8637597  37.0744357
  65.1791065  53.0459253  37.5372109  65.8201656  54.0805289  36.6369247
  65.3310836  52.7905782  34.3359405  65.8598602  52.2798236  33.7229567
  65.5939055  52.4748312  35.2004938  64.0849069  44.5697715  49.4582224
  63.4089706  44.4691844  50.1284599  64.9076703  44.4136928  49.9218221
  57.8036345  38.2239792  44.2961724  57.8677672  39.0854623  43.8839122
  57.7403466  37.6113793  43.5634083  57.2788618  40.2962924  47.9434759
  57.9060657  39.9140002  48.5572283  56.4216537  40.0777126  48.3090451
  54.0554161  42.1039353  33.8753113  54.3507602  41.1950032  33.8220167
  53.1542196  42.0827093  33.5534116  57.5848408  40.1795350  39.8580662
  56.8634993  40.7931318  39.7188135  58.3741663  40.7153115  39.7797308
  60.3874721  37.5149776  46.1321314  60.9109123  37.7612073  46.8947623
  60.1687054  38.3469811  45.7124451  55.7842002  39.7853451  33.9992438
  55.4554708  38.9050830  33.8167544  56.1381373  39.7301120  34.8868828
  58.8983825  40.0726421  34.3667916  59.2379898  40.6012342  33.6446525
  59.3455946  40.4106827  35.1426483  61.5927266  38.4563472  43.8170984
  61.2524087  37.6571285  44.2191664  60.8866273  38.7565182  43.2447817
  62.2443738  35.5412784  42.2698307  63.0669807  35.0673262  42.1477198
  62.4881802  36.3203268  42.7696994  60.8851973  38.5701042  32.5661209
  61.6060335  38.9482295  32.0624926  60.2617277  39.2889919  32.6696187
  54.2427979  44.7737249  43.0177947  53.6981447  45.5497057  43.1498221
  55.1207329  45.1208054  42.8597068  61.0315596  38.1048833  35.3958746
  61.1531507  37.1765479  35.5949633  60.7417638  38.1187519  34.4837061
  63.9006786  35.7903743  38.5325465  63.9228483  35.8543076  37.5777445
  64.3174845  34.9508252  38.7265972  53.6759220  49.7058901  38.9007432
  52.8391128  49.2781075  38.7191433  53.6482865  49.8991344  39.8378223
  60.5156675  39.6180830  49.6048678  60.5644831  40.4942953  49.2226448
  61.0579189  39.0758223  49.0320321  60.0045655  49.6902966  33.4874633
  60.1533775  50.3738430  32.8341305  60.8112098  49.6708056  34.0024088
  62.7455964  40.3712203  46.3595037  61.8759273  40.6645769  46.0877625
  62.9815444  40.9552648  47.0802300  57.7598288  45.7168143  34.4935702
  57.5144330  44.8130473  34.6915912  57.9294202  45.7185294  33.5515180
  65.4494997  36.5891820  43.8760457  65.9676941  37.3252847  43.5506946
  65.0950130  36.8955813  44.7107216  57.0293935  41.4496501  31.9921863
  56.3363180  41.5240856  31.3361899  56.7845687  40.6856844  32.5143380
  65.7007592  33.0092102  39.3961354  65.9809345  32.3415291  40.0221780
  66.4858199  33.2021198  38.8836018  63.5041060  52.1851096  30.9586380
  62.9315027  52.8041283  30.5056852  64.0773854  52.7350458  31.4926302
  63.8887859  43.5211909  28.3002433  64.8346963  43.3918117  28.3690851
  63.5102104  42.7826571  28.7771861  69.8609743  35.1867915  38.2629324
  69.6634564  34.8783003  39.1472656  70.4709449  35.9129554  38.3927254
  62.0730776  41.4461885  28.2357318  61.1662231  41.1494998  28.3120031
  62.3506757  41.1491703  27.3691604  52.9908716  42.7668249  38.6856364
  52.6711500  41.9133557  38.3930738  52.4442144  42.9816827  39.4414332
  56.7688624  45.4830690  42.4025871  56.9874633  46.4147797  42.4213905
  57.1814398  45.1238664  43.1880675  61.6416489  41.0563895  51.7928620
  61.5413216  42.0058252  51.7240711  61.4238031  40.7282134  50.9204690
  60.8429560  38.3048820  28.3769297  61.7048724  38.6303719  28.6365114
  61.0279905  37.5180316  27.8642363  52.8596976  46.3871160  40.6549486
  52.1660448  45.9725113  40.1419440  53.6069967  46.4291697  40.0582905
  61.5047759  44.4861034  50.6093681  61.0214841  45.2861394  50.8157570
  61.5908698  44.4968979  49.6561125  54.7733719  46.3189414  38.5315501
  54.7504407  46.4177101  37.5797384  55.0834355  47.1654565  38.8532667
  58.0220479  46.9466685  45.2132913  58.8413368  47.4410764  45.2367750
  58.2957286  46.0298653  45.1850480  66.9230288  49.1022112  28.6708888
  67.6266138  49.3072114  29.2866544  66.1992937  49.6698874  28.9357972
  65.8008785  48.3485666  51.4117250  66.6699945  48.5226319  51.0503885
  65.3215537  49.1680083  51.2892980  61.7959003  35.5444863  31.6649006
  61.7837673  36.4886703  31.8217277  62.6882425  35.3615009  31.3708467
  65.6111123  32.1387640  35.9194943  64.8443519  31.5846127  36.0651625
  66.0221828  32.2109509  36.7809094  57.6152884  38.4272436  50.0100124
  58.4784345  38.0709241  50.2203449  57.0418295  38.0886331  50.6975528
  64.4736317  57.4534673  41.9985760  64.7244356  58.3381683  42.2643335
  65.0095866  57.2739275  41.2260851  80.0324807  66.3302900  46.9724684
  79.9737353  65.6462120  46.3055267  80.4344325  67.0721890  46.5205310
  66.4906084  55.5156772  42.9566739  66.4064272  54.9082442  42.2217148
  65.6688790  56.0065790  42.9576235  78.5176481  66.0317817  49.5488494
  79.0616385  66.6447775  49.0543449  77.9363326  66.5897396  50.0655507
  66.6235757  55.1145369  33.9992438  66.2948463  54.2342748  33.8167544
  66.9775127  55.0593037  34.8868828  65.8687755  59.2299063  45.9108104
  65.1269491  59.3781698  46.4972734  65.5480500  59.4907329  45.0474853
  63.8302471  58.0960166  38.6856364  63.5105255  57.2425474  38.3930738
  63.2835899  58.3108744  39.4414332  64.1149147  56.6096737  45.9125110
  64.7608011  56.0995690  46.4012335  63.9066299  57.3465418  46.4868535
  86.5471096  80.8600082  32.0535406  85.8959076  81.4454163  31.6669419
  87.3415459  81.3906277  32.1130443  82.8093001  74.1081885  30.0840990
  83.0618522  73.5863407  29.3224453  81.8717560  73.9448031  30.1867673
  87.8536284  73.1117664  37.8915733  88.6399373  72.6937087  37.5406150
  88.1174988  74.0163756  38.0597381  88.0246361  78.5490514  32.5904390
  87.3892194  78.6225141  33.3025295  87.6943768  79.1384113  31.9123469
  93.2544711  73.0492897  38.7948712  93.9869883  72.4792114  39.0286541
  92.4984067  72.6614497  39.2355217  82.5289290  76.0109991  32.2865365
  82.4125548  75.3354895  32.9546449  82.6391550  75.5242365  31.4697518
  84.8720831  75.4720138  35.9912054  84.5079038  74.9450759  36.7024976
  85.7287947  75.0818608  35.8178539  90.7770131  66.7614471  43.2543320
  90.4453456  67.6309882  43.0304535  90.1815745  66.4450755  43.9337351
  84.5126318  70.5010038  30.9873403  84.6800720  71.3690275  31.3543874
  84.3223487  70.6637320  30.0634692  90.6698795  71.4809557  40.3336670
  89.7615672  71.4124966  40.0395431  90.6186390  71.9581502  41.1618496
  84.4915539  72.9567696  31.9720069  84.3715164  73.4024746  32.8105550
  83.7968127  73.3053013  31.4133608  82.2522431  85.7271337  35.6210201
  82.1746460  86.6779163  35.6998681  81.6484074  85.3817210  36.2785127
  92.5360441  69.6825996  42.1114544  91.8934821  69.9758529  41.4654339
  92.0315370  69.5678916  42.9167741  90.1900605  73.4289169  32.8000403
  91.1018461  73.6616556  32.6248101  89.6810252  74.0126213  32.2375482
  92.6759419  79.3469425  37.5458349  91.9910457  79.7268327  36.9955382
  92.7603268  79.9564752  38.2790296  84.3498149  78.1489395  37.4564070
  84.8136494  78.4277098  36.6668693  84.0854947  77.2472840  37.2737161
  83.2867035  74.2712548  34.2653635  83.9891078  74.7233591  34.7327562
  82.9547663  73.6296367  34.8933528  91.0456178  79.8701340  42.3176050
  91.8673622  79.4681527  42.0358731  91.0418581  79.7669574  43.2692165
  99.1362171  76.2140088  38.6661021  98.3825880  75.6447486  38.5105025
  99.2709713  76.1802753  39.6131656  84.5260800  81.0853490  34.3415740
  84.3906474  81.9305026  34.7700588  85.0670612  81.2872768  33.5781674
  81.0128139  67.1645070  51.0030096  80.6195085  66.6111269  51.6777740
  81.8294280  67.4755649  51.3936613  87.8753263  64.6084052  42.8714634
  87.5317533  65.4985694  42.7953744  88.2432226  64.4185710  42.0084219
  87.8403546  74.5992663  31.3787069  87.3250169  75.3697268  31.6175456
  87.5680854  73.9257800  32.0020130  85.4250657  69.4442364  36.4372307
  84.5692253  69.0549215  36.2577946  85.8377609  69.5234325  35.5772093
  92.8137820  77.3525018  33.3140242  92.0367263  77.0136178  32.8695405
  93.4929301  77.3577641  32.6395207  87.6289849  72.4719755  33.2046850
  87.3239985  72.7865905  34.0556993  88.5820291  72.5501175  33.2474183
  86.0736281  78.6309979  34.8539804  85.5457642  77.8962738  34.5413042
  85.5723784  79.4084655  34.6079772  81.1324596  71.3234106  31.2342301
  80.2961908  71.6608793  31.5551576  80.9929365  71.1883086  30.2969438
  84.2188881  76.4490189  27.8574777  83.3115943  76.2179442  28.0565926
  84.7159913  75.6527808  28.0448759  87.1256960  85.1587696  30.7771463
  86.4518659  85.4619393  31.3856421  87.5122782  85.9616777  30.4276920
  87.1250464  74.0544243  35.3971813  87.8722283  74.5665640  35.0878935
  87.3942054  73.7328296  36.2576207  85.3977114  76.5502784  32.3798767
  84.4888334  76.2661817  32.4771237  85.4272198  76.9701862  31.5202074
  90.6296382  80.1609373  36.1489935  90.1758709  79.3200283  36.2055125
  89.9990349  80.7970772  36.4864715  89.5729301  71.0901359  37.3790602
  88.8352058  70.5778746  37.7100845  89.8256075  70.6501741  36.5673879
  89.0729321  81.9985870  37.0839753  89.3652296  82.5590927  36.3652119
  89.5827942  82.2914431  37.8392912  89.6740929  63.8677611  37.9732372
  89.9799806  63.0074975  37.6858287  90.3993534  64.4595232  37.7731365
  85.0953202  78.0911528  29.7186846  84.6572632  77.3747387  29.2592483
  85.8363643  78.3187642  29.1571937  93.2126317  76.3668725  35.7763164
  93.0744216  76.5570321  34.8484354  92.8562536  77.1288107  36.2331216
  93.2395697  78.4345252  40.7874436  93.6732203  78.3420541  41.6357490
  93.9527277  78.4102752  40.1494452  94.1011246  78.4768952  43.3207321
  94.2947136  79.3814763  43.5666596  94.0011864  78.0176371  44.1545906
  85.3248175  85.3267369  32.9918542  85.4999931  84.8555412  33.8064165
  84.6380963  85.9533135  33.2199803  89.2164430  76.9495909  29.3118903
  88.5993601  76.2242737  29.2151956  88.7480918  77.7105270  28.9685978
  81.0062976  71.1681334  28.4340208  80.1292442  71.0470134  28.0702454
  81.4820729  70.3767412  28.1819096  84.1926902  83.5207624  35.6802728
  83.4094424  84.0629304  35.7740953  84.8919647  84.0381604  36.0796969
  87.5023552  69.3302253  38.3236934  87.9992251  68.5772216  38.0038004
  86.7310533  69.3666570  37.7580143  95.3553309  75.0342619  39.9655225
  95.3443186  75.9167334  39.5949158  94.4870689  74.6814170  39.7709762
  88.5853333  78.0873941  35.8975357  87.6509611  78.2075403  35.7280061
  88.7630001  77.1846407  35.6335367  91.9725884  73.9291260  36.4325391
  92.4386336  74.7619251  36.3585694  92.4233384  73.4636241  37.1370650
  90.0402115  80.2735081  33.4311543  90.3161959  80.1591676  34.3405417
  89.1706614  79.8752566  33.3923716  89.9442547  66.2971847  40.4716292
  89.0305627  66.5276074  40.6398499  90.3735648  66.3810291  41.3230325
  87.0098345  83.4489617  34.3359405  87.5386111  82.9382072  33.7229567
  87.2726564  83.1332147  35.2004938  89.3570235  81.3609735  49.5488494
  89.9010139  81.9739693  49.0543449  88.7757080  81.9189313  50.0655507
  90.3143212  82.9020748  39.5952297  91.2389759  82.6963609  39.4576748
  90.1458515  82.6537149  40.5041638  82.5639482  69.2284878  32.5661209
  83.2847844  69.6066131  32.0624926  81.9404786  69.9473755  32.6696187
  86.7070604  69.9330027  33.5019541  86.9234219  70.8154665  33.2008369
  86.2264672  69.5416240  32.7725183  90.1038528  83.4206415  34.9514388
  90.2775406  82.8552838  34.1988241  90.5967419  84.2207310  34.7693878
  95.9577919  76.1842838  36.5704688  96.4009065  75.4350163  36.1723811
  95.0804430  76.1752975  36.1878420  91.0913701  82.7373180  32.0511287
  91.7864605  83.3579872  32.2698601  91.4336851  81.8868531  32.3263664
  92.9905124  80.1872885  33.5798617  93.5156448  80.5260158  32.8547937
  92.9027476  79.2519901  33.3961752  84.6745785  86.2544869  37.9393870
  84.2350775  85.7621247  38.6326727  85.4253901  85.7117836  37.6985946
  92.6799030  80.8205789  48.8849815  91.8894574  80.8029928  48.3454315
  92.4432384  81.3594083  49.6398852  92.7996905  77.6698255  46.1982544
  92.8494910  77.5048263  47.1398067  92.6910828  76.8025514  45.8080425
  81.6833164  80.3486801  33.4874633  81.8321284  81.0322265  32.8341305
  82.4899607  80.3291891  34.0024088  94.3015102  80.0895197  46.4424565
  94.0099910  80.4525177  47.2788026  93.6887233  79.3762205  46.2637897
  95.5010784  77.6548077  38.9627136  96.3357675  78.0937881  39.1264696
  95.6369913  77.1786730  38.1435381  92.5502290  75.2127811  44.9104623
  93.0256412  75.4055458  44.1023475  91.6267855  75.2686997  44.6648007
  87.1282506  67.2475655  43.8760457  87.6464450  67.9836682  43.5506946
  86.7737639  67.5539648  44.7107216  78.7081444  72.1080336  31.9921863
  78.0150689  72.1824691  31.3361899  78.4633196  71.3440680  32.5143380
  85.1828569  82.8434931  30.9586380  84.6102536  83.4625119  30.5056852
  85.7561363  83.3934293  31.4926302  89.2718338  69.1749155  43.3292330
  88.6768271  69.4554167  42.6338818  88.9868035  69.6643056  44.1009071
  88.4025829  83.1272082  32.0894962  89.3356502  83.0617643  32.2927838
  88.3149042  83.9628348  31.6309495  91.0313846  82.4437952  29.0498910
  90.9527477  82.1097815  29.9434668  91.8523512  82.9359720  29.0490382
  93.7292037  75.3099691  42.2575229  93.6968357  74.3715692  42.4434912
  94.3392660  75.3883728  41.5241053  85.5675368  74.1795744  28.3002433
  86.5134472  74.0501952  28.3690851  85.1889613  73.4410406  28.7771861
  93.8786525  72.1010735  42.3033512  93.3625574  71.3169191  42.1163441
  94.7626474  71.7729451  42.4680031  91.5397252  65.8451750  38.2629324
  91.3422073  65.5366838  39.1472656  92.1496958  66.5713389  38.3927254
  99.5468587  76.3715698  41.3981265 100.2771975  76.1100986  41.9588969
  98.9375532  75.6344420  41.4383333  97.6283884  74.5123561  41.9955717
  96.9017047  74.3779526  41.3872208  97.2131171  74.8200389  42.8012435
  83.7518285  72.1045721  28.2357318  82.8449740  71.8078833  28.3120031
  84.0294266  71.8075539  27.3691604  87.2970899  65.7260657  36.0125856
  87.8501937  66.1456111  36.6715879  87.5340985  64.7996405  36.0548812
  82.5217069  68.9632656  28.3769297  83.3836233  69.2887554  28.6365114
  82.7067414  68.1764152  27.8642363  90.6749706  67.8361182  35.5204520
  90.0948375  68.4945986  35.1382572  90.4085639  67.0138527  35.1091938
  89.1253272  67.2366240  37.7225840  89.6253051  67.3482774  36.9140159
  89.7688880  66.9327293  38.3626649  89.4574584  69.9961273  34.5760868
  88.5700439  70.2810923  34.3581063  89.8728573  69.8355036  33.7288145
  92.8089120  70.0207794  38.2915208  93.5849510  70.5104246  38.5639824
  92.0837254  70.4465848  38.7487077  95.2461679  70.7335413  39.3489148
  95.8406169  70.4931149  38.6382456  95.3188262  70.0142543  39.9762684
  88.6017797  79.7605947  28.6708888  89.3053647  79.9655950  29.2866544
  87.8780446  80.3282709  28.9357972  89.4315608  75.5115809  34.7911158
  89.3750809  75.9684360  33.9518791  89.9843950  74.7506493  34.6134001
  93.2420414  71.3005540  35.6161278  92.9857348  70.9002176  36.4469486
  92.6173282  72.0149334  35.4911417  97.5532751  74.0401614  38.1232569
  96.9932309  74.1094803  38.8964131  96.9476255  73.8642598  37.4032066
  90.5104495  80.1988476  30.7207348  91.3450099  79.7669675  30.5384823
  90.3488838  80.0270490  31.6484243  90.1650387  76.7020590  32.0863688
  90.1099191  76.5364861  31.1452132  89.5396442  77.4096623  32.2425877
  87.4796294  79.0069502  51.4117250  88.3487454  79.1810154  51.0503885
  87.0003046  79.8263918  51.2892980  99.1388770  90.7158128  40.8162525
  99.7767180  90.5964875  40.1125865  99.0209613  91.6638972  40.8750477
  95.9478476  90.6685556  40.7524050  95.6096988  90.5526620  39.8644585
  96.8168244  90.2676721  40.7325056  91.8065292  92.5221032  36.7420941
  91.2430157  92.4310969  35.9737228  91.6917687  91.7020937  37.2223433
  96.4298259  91.8220407  46.7110255  96.4186900  91.4273206  45.8390759
  96.5918899  91.0886480  47.3044027  89.3529724  94.0172224  39.5805161
  90.1451016  93.6763048  39.1651460  89.5926374  94.1267199  40.5007314
  91.3120478  93.2781137  32.4522540  92.0851354  92.7310124  32.3135416
  91.6645877  94.1425386  32.6637001  93.1505520  94.6057519  45.6589439
  92.8595386  95.5103150  45.5436106  93.7862505  94.6474047  46.3733509
  94.0761727  91.9834368  42.2490799  94.6725299  91.7590390  41.5347762
  94.1336699  91.2419113  42.8516247  93.6486756  89.4373803  30.0840990
  93.9012276  88.9155324  29.3224453  92.7111315  89.2739949  30.1867673
  98.6930038  88.4409581  37.8915733  99.4793128  88.0229005  37.5406150
  98.9568743  89.3455674  38.0597381 104.0938465  88.3784815  38.7948712
 104.8263637  87.8084031  39.0286541 103.3377821  87.9906415  39.2355217
  93.3683044  91.3401909  32.2865365  93.2519302  90.6646812  32.9546449
  93.4785304  90.8534283  31.4697518  95.7114585  90.8012056  35.9912054
  95.3472792  90.2742677  36.7024976  96.5681701  90.4110525  35.8178539
 101.6163886  82.0906389  43.2543320 101.2847211  82.9601800  43.0304535
 101.0209499  81.7742673  43.9337351  95.3520072  85.8301956  30.9873403
  95.5194474  86.6982192  31.3543874  95.1617241  85.9929238  30.0634692
  91.5607887  90.7432732  38.6875937  90.6358383  90.6108946  38.8953629
  91.8092300  91.5226951  39.1845880 101.5092549  86.8101475  40.3336670
 100.6009426  86.7416883  40.0395431 101.4580145  87.2873420  41.1618496
  95.3309293  88.2859613  31.9720069  95.2108918  88.7316664  32.8105550
  94.6361881  88.6344931  31.4133608  88.9216698  90.3866005  39.5219726
  89.0509079  90.6400484  40.4359138  88.2414149  90.9793713  39.2024382
  95.5833415  88.2291121  48.2771568  94.8066749  88.7885041  48.2674432
  96.2223978  88.7147904  48.7986438 103.3754196  85.0117913  42.1114544
 102.7328576  85.3050446  41.4654339 102.8709124  84.8970834  42.9167741
 101.0294359  88.7581087  32.8000403 101.9412215  88.9908473  32.6248101
 100.5204006  89.3418131  32.2375482  93.8379787  91.0376574  47.8389535
  94.5794472  91.5761618  47.5624358  93.1316773  91.6642863  47.9961086
  99.3135127  93.1805714  46.4361696  99.7218483  92.7388125  45.6916328
  98.5912388  92.6058342  46.6895889  95.6666197  88.1178321  43.8095253
  96.5127392  88.5417735  43.9529902  95.6064835  87.4611945  44.5033816
  98.8165642  85.7782689  45.4676427  98.5726574  86.5324750  44.9310702
  99.0925573  86.1568037  46.3023674  98.3730334  84.9339122  41.0490264
  97.5114813  85.2320376  41.3407002  98.3992769  85.1509521  40.1171297
  95.1891903  93.4781313  37.4564070  95.6530249  93.7569016  36.6668693
  94.9248701  92.5764758  37.2737161  92.0815984  93.0252795  40.3943833
  92.6517341  93.4540063  39.7561318  92.6724096  92.7435379  41.0928019
  94.1260789  89.6004465  34.2653635  94.8284833  90.0525509  34.7327562
  93.7941418  88.9588284  34.8933528  92.5741151  88.1916222  48.6404845
  91.9439812  88.8732503  48.8740241  92.4677239  88.0799304  47.6957983
  87.8686123  87.8588018  39.5670769  87.0785177  88.1145547  39.0910879
  88.3597371  88.6736356  39.6722809  89.8200869  88.2232597  36.5254245
  89.0232032  88.3351292  37.0437741  89.5926461  88.5619250  35.6595136
  95.6506536  94.7477301  44.4736760  95.7150969  95.2097708  45.3094932
  94.9417460  94.1174665  44.6019070  86.1523826  88.1118509  41.9985760
  86.4031865  88.9965518  42.2643335  86.6883375  87.9323110  41.2260851
  91.8521894  82.4936988  51.0030096  91.4588839  81.9403186  51.6777740
  92.6688034  82.8047566  51.3936613  88.8183951  93.9320846  34.9143665
  89.3308472  94.7264096  35.0649230  89.4706664  93.2347137  34.8477267
  90.6278836  97.0486602  36.9966419  90.8045464  97.9704567  36.8087403
  91.4235670  96.7345022  37.4260798  94.7689855  83.9094867  48.5950352
  95.5099568  84.5102020  48.5154815  95.0007777  83.1672505  48.0368395
  89.9131193  89.0951234  46.8728582  89.7984708  88.1936491  47.1735681
  89.0575710  89.3414931  46.5213398  95.5477323  94.8315904  47.3420992
  96.0805659  94.0704192  47.1120300  95.0191404  94.5389556  48.0845147
  98.7147018  79.9375970  42.8714634  98.3711287  80.8277612  42.7953744
  99.0825980  79.7477628  42.0084219  86.7832868  92.2609500  35.6903236
  87.6208090  92.6706509  35.4736944  86.9611136  91.3208943  35.6603430
  98.6797300  89.9284581  31.3787069  98.1643924  90.6989186  31.6175456
  98.4074609  89.2549717  32.0020130  96.2644411  84.7734282  36.4372307
  95.4086008  84.3841132  36.2577946  96.6771363  84.8526243  35.5772093
  97.7943558  82.3080625  40.8363867  97.2908354  82.2710760  40.0231672
  98.0874165  83.2173368  40.8960524  94.0386444  82.3919355  39.8430049
  94.9039441  82.1962163  39.4835938  94.1063953  82.1629707  40.7699406
  98.4683603  87.8011673  33.2046850  98.1633739  88.1157822  34.0556993
  99.4214046  87.8793093  33.2474183  96.9130035  93.9601896  34.8539804
  96.3851397  93.2254656  34.5413042  96.4117538  94.7376573  34.6079772
  91.6448763  84.6221563  37.2146416  92.2192515  84.3996744  36.4819609
  92.2319745  84.6910257  37.9675017 100.7028340  90.5095290  38.0210792
 101.2160222  91.1425281  38.5232502 101.3529564  89.9096485  37.6554152
  91.9718350  86.6526024  31.2342301  91.1355662  86.9900710  31.5551576
  91.8323120  86.5175004  30.2969438  93.9471431  81.4962812  35.9421485
  93.2935843  81.1811829  35.3178100  93.9051905  80.8738552  36.6681308
  97.1809171  87.9844745  40.2669133  96.2631732  88.2059692  40.1090821
  97.5969315  88.0591056  39.4080840  97.9644219  89.3836161  35.3971813
  98.7116038  89.8957558  35.0878935  98.2335808  89.0620214  36.2576207
  96.2370869  91.8794702  32.3798767  95.3282088  91.5953734  32.4771237
  96.2665953  92.2993780  31.5202074 100.4123056  86.4193277  37.3790602
  99.6745813  85.9070663  37.7100845 100.6649829  85.9793659  36.5673879
 100.5134683  79.1969529  37.9732372 100.8193560  78.3366893  37.6858287
 101.2387288  79.7887149  37.7731365  86.8059039  89.6000216  36.3613969
  86.6083439  89.0069576  35.6365036  86.2505703  89.2952426  37.0789908
  94.7855763  89.4923322  38.4808563  94.8404373  88.5397159  38.4051039
  93.9746965  89.6482761  38.9649861  92.7248123  88.1100382  36.2398941
  91.9115988  88.4094552  36.6464134  93.2207117  87.7156071  36.9573424
  98.3222335  88.5742206  45.0713835  98.6771722  88.8013680  45.9308301
  98.9694466  88.9060583  44.4491091  92.2162198  85.6818737  41.8560176
  92.8561577  85.5407497  41.1583140  91.3839728  85.3953251  41.4798778
  92.9922502  94.9821168  37.9695169  93.7863100  94.4871488  37.7677744
  92.2814194  94.4539031  37.6062874  89.3005265  89.1264250  34.0454922
  88.3702853  89.0648705  34.2624884  89.3962737  88.6040202  33.2491563
  89.2190814  85.6519062  36.6333163  89.4797631  86.5664396  36.5242324
  90.0407986  85.1843505  36.7829776  96.5941311  83.6918761  45.8197649
  95.9469226  84.3908710  45.7262125  97.3642327  84.1254904  46.1873897
  96.7705446  91.5299525  43.8794468  97.6997506  91.6810685  43.7063436
  96.3496476  91.6183546  43.0243115  95.5693778  95.5550190  41.6493006
  95.4304863  95.1868974  42.5218944  94.7808374  96.0697829  41.4776964
  97.1198993  94.9331793  39.0381844  96.7848825  94.8932563  39.9339494
  96.6202938  94.2676508  38.5652254  91.0943237  90.3399423  44.5634425
  90.9563035  89.6079661  45.1645964  92.0048160  90.2508323  44.2818613
  93.7225537  90.0519382  44.0518105  94.4325156  89.4112574  44.0104723
  93.6794846  90.3032277  44.9744285  92.4354471  87.0384600  45.8713744
  91.8991828  86.5875338  46.5235340  91.8471180  87.1730509  45.1284208
  91.8456730  86.4973251  28.4340208  90.9686197  86.3762052  28.0702454
  92.3214483  85.7059330  28.1819096  83.3658870  91.2850411  38.5281715
  84.0529910  90.9712141  37.9402730  83.2106999  92.1891776  38.2548966
  98.3417306  84.6594171  38.3236934  98.8386006  83.9064133  38.0038004
  97.5704288  84.6958488  37.7580143  94.9252275  86.8011554  38.0508618
  94.5550063  86.2482594  38.7389524  95.4211368  86.1969687  37.4983618
 102.8119638  89.2583178  36.4325391 103.2780091  90.0911169  36.3585694
 103.2627139  88.7928159  37.1370650 100.7836301  81.6263765  40.4716292
  99.8699381  81.8567991  40.6398499 101.2129403  81.7102209  41.3230325
 100.5542760  89.8153656  42.9716186  99.9014210  90.0629564  42.3168639
 100.9323140  89.0017795  42.6378664  96.6030333  90.5573468  49.4582224
  95.9270970  90.4567597  50.1284599  97.4257967  90.4012681  49.9218221
  88.3509192  96.7945404  42.0794739  88.9362629  96.0489092  42.2122643
  88.1534030  97.1049361  42.9631403  82.9426847  89.3651004  40.7999182
  82.9810946  88.8314595  41.5936300  82.4367139  88.8386210  40.1810159
  86.5735424  88.0915106  33.8753113  86.8688865  87.1825785  33.8220167
  85.6723460  88.0702846  33.5534116  90.1029671  86.1671103  39.8580662
  89.3816257  86.7807071  39.7188135  90.8922927  86.7028868  39.7797308
  92.9055985  83.5025530  46.1321314  93.4290386  83.7487826  46.8947623
  92.6868318  84.3345564  45.7124451  88.3023266  85.7729204  33.9992438
  87.9735972  84.8926583  33.8167544  88.6562636  85.7176873  34.8868828
  91.4165089  86.0602174  34.3667916  91.7561161  86.5888095  33.6446525
  91.8637209  86.3982580  35.1426483  94.1108530  84.4439225  43.8170984
  93.7705350  83.6447038  44.2191664  93.4047536  84.7440935  43.2447817
  94.7625002  81.5288537  42.2698307  95.5851071  81.0549015  42.1477198
  95.0063065  82.3079021  42.7696994  93.4033236  84.5576795  32.5661209
  94.1241599  84.9358048  32.0624926  92.7798540  85.2765672  32.6696187
  97.5464359  85.2621944  33.5019541  97.7627973  86.1446582  33.2008369
  97.0658426  84.8708158  32.7725183  92.2863580  88.2207658  40.0790286
  92.1408161  88.5347961  40.9714567  91.8088784  88.8392558  39.5261185
  94.1459963  85.2110206  40.1271175  94.1321532  84.3151299  39.7903473
  94.8632391  85.2180869  40.7609461  95.9986094  85.6447546  42.1724303
  95.7403872  86.5664617  42.1708633  95.4671134  85.2477980  42.8624767
  86.7609242  90.7613002  43.0177947  86.2162711  91.5372810  43.1498221
  87.6388592  91.1083807  42.8597068  93.5496859  84.0924586  35.3958746
  93.6712770  83.1641232  35.5949633  93.2598901  84.1063272  34.4837061
  96.4188049  81.7779496  38.5325465  96.4409746  81.8418829  37.5777445
  96.8356108  80.9384005  38.7265972  87.5475264  89.8882898  45.9108104
  86.8057000  90.0365534  46.4972734  87.2268009  90.1491164  45.0474853
  87.9931878  97.7748327  37.9418499  88.8189898  97.4752099  37.5617142
  87.6425930  97.0055950  38.3908287  92.9613411  97.1274795  40.0116172
  92.3393420  96.4645500  39.7118400  93.6318278  97.1535927  39.3289820
  86.1940483  95.6934654  38.9007432  85.3572391  95.2656828  38.7191433
  86.1664128  95.8867097  39.8378223  93.0337939  85.6056583  49.6048678
  93.0826094  86.4818706  49.2226448  93.5760453  85.0633976  49.0320321
  92.5226918  95.6778719  33.4874633  92.6715038  96.3614183  32.8341305
  93.3293362  95.6583809  34.0024088 100.9294422  88.9821101  47.5141850
 101.8304285  88.8427566  47.2225848 101.0042396  89.1475556  48.4540028
  95.2637227  86.3587956  46.3595037  94.3940536  86.6521522  46.0877625
  95.4996707  86.9428401  47.0802300  90.2779551  91.7043896  34.4935702
  90.0325593  90.8006226  34.6915912  90.4475466  91.7061047  33.5515180
  97.9676261  82.5767573  43.8760457  98.4858205  83.3128600  43.5506946
  97.6131394  82.8831566  44.7107216  89.5475199  87.4372254  31.9921863
  88.8544444  87.5116609  31.3361899  89.3026950  86.6732597  32.5143380
  98.2188855  78.9967855  39.3961354  98.4990609  78.3291044  40.0221780
  99.0039462  79.1896951  38.8836018 102.0897713  87.4185489  43.1432929
 103.0415136  87.5183587  43.1645153 101.9201164  86.6263758  43.6531013
 100.1112093  84.5041072  43.3292330  99.5162025  84.7846085  42.6338818
  99.8261790  84.9934973  44.1009071  96.4069122  89.5087662  28.3002433
  97.3528227  89.3793870  28.3690851  96.0283367  88.7702324  28.7771861
 102.3791007  81.1743668  38.2629324 102.1815828  80.8658756  39.1472656
 102.9890712  81.9005307  38.3927254  96.2907815  93.5605408  49.7603090
  97.2110824  93.7384007  49.9543136  96.2557398  92.6161453  49.6082789
  94.5912039  87.4337638  28.2357318  93.6843495  87.1370751  28.3120031
  94.8688020  87.1367456  27.3691604  85.5089980  88.7544002  38.6856364
  85.1892764  87.9009310  38.3930738  84.9623408  88.9692580  39.4414332
  89.2869887  91.4706443  42.4025871  89.5055897  92.4023550  42.4213905
  89.6995661  91.1114417  43.1880675  96.2074105  81.9774528  34.3901559
  95.3974833  81.6321613  34.7656805  96.8958522  81.6682072  34.9789171
  98.1364653  81.0552575  36.0125856  98.6895692  81.4748028  36.6715879
  98.3734740  80.1288323  36.0548812  94.1597752  87.0439648  51.7928620
  94.0594479  87.9934005  51.7240711  93.9419295  86.7157887  50.9204690
  93.3610824  84.2924573  28.3769297  94.2229988  84.6179472  28.6365114
  93.5461168  83.5056069  27.8642363  85.3778240  92.3746913  40.6549486
  84.6841711  91.9600866  40.1419440  86.1251231  92.4167450  40.0582905
 101.5143460  83.1653100  35.5204520 100.9342129  83.8237904  35.1382572
 101.2479393  82.3430445  35.1091938  99.9647027  82.5658158  37.7225840
 100.4646805  82.6774692  36.9140159 100.6082635  82.2619210  38.3626649
  94.0229023  90.4736787  50.6093681  93.5396104  91.2737147  50.8157570
  94.1089962  90.4844732  49.6561125  87.2914982  92.3065167  38.5315501
  87.2685670  92.4052854  37.5797384  87.6015619  93.1530318  38.8532667
  89.9502360  94.3641322  42.6462115  90.9045614  94.3325264  42.5792047
  89.7514884  93.9031946  43.4612341  90.5401742  92.9342438  45.2132913
  91.3594631  93.4286517  45.2367750  90.8138550  92.0174406  45.1850480
 100.2968338  85.3253190  34.5760868  99.4094193  85.6102841  34.3581063
 100.7122327  85.1646954  33.7288145 103.6482874  85.3499711  38.2915208
 104.4243265  85.8396164  38.5639824 102.9231009  85.7757765  38.7487077
  88.3052589  99.9060941  39.6632313  88.1707057  99.1461342  39.0970311
  87.8884651 100.6301841  39.1961102 100.2709362  90.8407726  34.7911158
 100.2144563  91.2976278  33.9518791 100.8237705  90.0798411  34.6134001
 104.0814168  86.6297458  35.6161278 103.8251102  86.2294094  36.4469486
 103.4567036  87.3441252  35.4911417  94.3140267  81.5320616  31.6649006
  94.3018937  82.4762456  31.8217277  95.2063689  81.3490762  31.3708467
  98.1292386  78.1263393  35.9194943  97.3624782  77.5721880  36.0651625
  98.5403091  78.1985262  36.7809094  90.1334147  84.4148189  50.0100124
  90.9965609  84.0584994  50.2203449  89.5599558  84.0762084  50.6975528
  38.9536749  -5.0339947  32.3834746  38.6626615  -4.1294316  32.2681412
  39.5893733  -4.9923419  33.0978815  43.9126634  -5.3478531  29.3784540
  43.6127357  -4.4453492  29.2700347  43.5677694  -5.6146348  30.2305692
  41.4537765  -4.8920165  31.1982067  41.5182198  -4.4299758  32.0340239
  40.7448689  -5.5222800  31.3264377  42.7954259  -2.6028491  35.1961389
  42.3518113  -3.3892113  34.8782294  43.4571473  -2.4149341  34.5305280
  37.5541380  -1.0732690  29.7222068  38.1048806  -1.2015626  28.9499062
  36.7152856  -0.7737801  29.3716960  44.8935497  -2.3225691  33.2242790
  44.8753973  -1.5016810  32.7323060  45.8155417  -2.4471616  33.4492932
  41.3508551  -4.8081562  34.0666299  41.8836888  -5.5693274  33.8365607
  40.8222633  -5.1007910  34.8090453  45.7154304  -2.3119678  23.8085060
  46.0077279  -1.7514621  23.0897425  46.2252925  -2.0191117  24.5638219
  43.6148575  -2.2758202  29.0452843  43.6685597  -1.7067266  29.8130559
  42.7463356  -2.1056317  28.6806880  41.3725006  -4.0847276  28.3738313
  41.2336092  -4.4528492  29.2464251  40.5839603  -3.5699636  28.2022270
  47.5143545  -2.6510731  33.6969990  47.4556091  -3.3351510  33.0300573
  47.9163063  -1.9091741  33.2450616  36.5334244   4.1651183  26.4903709
  36.7730842   4.7969707  27.1682728  35.6903440   3.8139223  26.7769069
  41.0462106  -0.0269694  28.8945213  40.9732277   0.7785277  29.4064518
  40.6039499   0.1722272  28.0693235  43.5060789  -0.1282860  31.0503372
  44.2188761   0.5064605  30.9779273  43.0150818  -0.0318994  30.2343374
  38.5572703  -2.3788417  31.8708943  39.2582162  -1.7451934  32.0238337
  38.0867818  -2.0373685  31.1104582  43.3181162   0.2115884  23.7989663
  43.5003557  -0.6062460  24.2617416  44.1414148   0.4283576  23.3614553
  34.1540421  -2.8452062  28.8040045  34.7393857  -3.5908374  28.9367950
  33.9565259  -2.5348105  29.6876709  41.1484344   2.2242929  30.4185146
  41.7002652   2.3874551  31.1834231  41.4890538   2.8147367  29.7465171
  45.9995219  -2.9495813  36.2733801  46.5435123  -2.3365855  35.7788755
  45.4182064  -2.3916235  36.7900814  44.2852732   0.1724905  27.4048828
  44.1603871  -0.6285355  26.8959774  44.9431823   0.6671098  26.9162798
  46.3487640  -2.0266075  29.0328378  45.4017976  -2.1460724  28.9606705
  46.6970413  -2.9143577  29.1154640  43.3534073  -2.2313359  25.2332731
  43.2059036  -3.1596652  25.4140301  44.1787567  -2.2093268  24.7489806
  46.9568195  -1.4084800  26.3197603  47.8814743  -1.6141939  26.1822055
  46.7883499  -1.6568399  27.2286945  41.2950156  -0.2098589  32.4333801
  41.6037282  -0.4549442  33.3056500  42.0925638  -0.0051951  31.9452671
  41.3170768   1.9439320  24.6639177  40.8775758   1.4515699  25.3572034
  42.0678885   1.4012288  24.4231252  49.3224013  -3.4899759  35.6095122
  48.5319557  -3.5075620  35.0699621  49.0857368  -2.9511466  36.3644158
  35.7533589  -5.2756144  29.3707422  36.7076842  -5.3072202  29.3037353
  35.5546112  -5.7365520  30.1857648  36.3432971  -6.7055028  31.9378219
  37.1625860  -6.2110949  31.9613057  36.6169779  -7.6223060  31.9095787
  37.2652943   1.1632793  26.5996062  37.1485328   2.1078225  26.4974753
  36.4445390   0.8606354  26.9881861  44.1221277  -5.3036046  38.1362557
  44.9912437  -5.1295394  37.7749192  43.6428029  -4.4841630  38.0138286
  38.2907458   1.8161055  29.8151991  39.1934704   1.8484665  30.1318486
  38.0644828   0.8861506  29.8298326  40.0461060   0.5692041  26.4762069
  39.0956691   0.5693903  26.3626442  40.3493546  -0.1775224  25.9598104
  55.7813753   6.4052579  27.5407832  56.4192163   6.2859327  26.8371172
  55.6634596   7.3533423  27.5995784  52.5903459   6.3580008  27.4769356
  52.2521971   6.2421072  26.5889891  53.4593228   5.9571173  27.4570363
  48.4490275   8.2115484  23.4666247  47.8855140   8.1205421  22.6982535
  48.3342670   7.3915388  23.9468740  53.0723242   7.5114859  33.4355562
  53.0611883   7.1167658  32.5636066  53.2343882   6.7780932  34.0289333
  45.9954707   9.7066676  26.3050468  46.7875999   9.3657500  25.8896767
  46.2351357   9.8161651  27.2252621  54.0289834  11.8786452  18.7780712
  53.3777814  12.4640532  18.3914726  54.8234197  12.4092647  18.8375750
  47.9545461   8.9675589  19.1767847  48.7276337   8.4204576  19.0380722
  48.3070860   9.8319838  19.3882308  49.7930504  10.2951971  32.3834746
  49.5020370  11.1997602  32.2681412  50.4287488  10.3368499  33.0978815
  50.7186710   7.6728820  28.9736106  51.3150283   7.4484842  28.2593068
  50.7761682   6.9313565  29.5761553  55.3355022   4.1304033  24.6161040
  56.1218111   3.7123457  24.2651457  55.5993726   5.0350126  24.7842688
  55.5065099   9.5676884  19.3149697  54.8710932   9.6411510  20.0270601
  55.1762505  10.1570482  18.6368776  60.7363449   4.0679267  25.5194018
  61.4688621   3.4978483  25.7531848  59.9802804   3.6800867  25.9600524
  50.0108028   7.0296361  19.0110671  49.8944286   6.3541264  19.6791756
  50.1210287   6.5428735  18.1942825  52.3539568   6.4906508  22.7157361
  51.9897776   5.9637129  23.4270282  53.2106684   6.1004977  22.5423846
  54.7520389   9.9813387  29.3784540  54.4521112  10.8838425  29.2700347
  54.4071448   9.7145570  30.2305692  48.2032870   6.4327183  25.4121244
  47.2783367   6.3003398  25.6198936  48.4517283   7.2121403  25.9091186
  58.1517532   2.4995927  27.0581977  57.2434410   2.4311335  26.7640738
  58.1005128   2.9767872  27.8863802  51.9734276   3.9754065  18.6965376
  51.8533902   4.4211116  19.5350856  51.2786865   4.3239383  18.1378914
  45.5641681   6.0760457  26.2465033  45.6934062   6.3294936  27.1604445
  44.8839132   6.6688165  25.9269688  49.7341168  16.7457707  22.3455507
  49.6565198  17.6965532  22.4243988  49.1302812  16.4003579  23.0030434
  52.2258398   3.9185572  35.0016874  51.4491732   4.4779493  34.9919739
  52.8648961   4.4042355  35.5231744  60.0179179   0.7012365  28.8359851
  59.3753559   0.9944898  28.1899645  59.5134107   0.5865286  29.6413047
  57.6719342   4.4475538  19.5245710  58.5837199   4.6802925  19.3493408
  57.1628990   5.0312583  18.9620789  50.4804771   6.7271026  34.5634841
  51.2219455   7.2656070  34.2869665  49.7741756   7.3537315  34.7206393
  55.9560110   8.8700166  33.1607003  56.3643466   8.4282577  32.4161635
  55.2337372   8.2952794  33.4141196  52.3091180   3.8072773  30.5340560
  53.1552375   4.2312187  30.6775209  52.2489818   3.1506397  31.2279123
  56.2788925   9.4301357  26.9159292  55.6497787   9.5947071  26.2135359
  55.8914587   9.8442966  27.6870256  60.1578157  10.3655795  24.2703655
  59.4729195  10.7454696  23.7200689  60.2422006  10.9751121  25.0035603
  55.4590626   1.4677141  32.1921733  55.2151557   2.2219202  31.6556009
  55.7350556   1.8462489  33.0268980  57.4129088   8.0115754  30.8698999
  57.6245984   8.6547514  30.1933380  57.3658837   7.1778070  30.4020929
  55.0155317   0.6233574  27.7735571  54.1539796   0.9214828  28.0652309
  55.0417752   0.8403973  26.8416604  51.8316887   9.1675765  24.1809377
  52.2955232   9.4463468  23.3913999  51.5673685   8.2659210  23.9982467
  48.7240968   8.7147246  27.1189140  49.2942325   9.1434515  26.4806624
  49.3149080   8.4329831  27.8173326  50.7685773   5.2898917  20.9898942
  51.4709816   5.7419961  21.4572868  50.4366401   4.6482736  21.6178835
  49.2166134   3.8810674  35.3650151  48.5864795   4.5626955  35.5985548
  49.1102222   3.7693756  34.4203289  44.5111107   3.5482470  26.2916075
  43.7210161   3.8039999  25.8156186  45.0022354   4.3630808  26.3968116
  58.5274916  10.8887709  29.0421356  59.3492360  10.4867896  28.7604038
  58.5237319  10.7855943  29.9937472  46.4625852   3.9127049  23.2499552
  45.6657015   4.0245743  23.7683048  46.2351444   4.2513701  22.3840443
  52.2931520  10.4371752  31.1982067  52.3575952  10.8992160  32.0340239
  51.5842444   9.8069117  31.3264377  42.7948810   3.8012960  28.7231066
  43.0456848   4.6859970  28.9888642  43.3308358   3.6217562  27.9506158
  66.6180909   7.2326458  25.3906328  65.8644618   6.6633856  25.2350332
  66.7528450   7.1989122  26.3376962  52.0079537  12.1039860  21.0661047
  51.8725212  12.9491396  21.4945895  52.5489350  12.3059138  20.3026981
  48.4946877  -1.8168560  37.7275402  48.1013823  -2.3702362  38.4023046
  49.3113017  -1.5057982  38.1181920  45.4608935   9.6215298  21.6388972
  45.9733455  10.4158548  21.7894537  46.1131648   8.9241588  21.5722574
  47.2703819  12.7381054  23.7211725  47.4470448  13.6599019  23.5332709
  48.0660653  12.4239473  24.1506105  51.4114838  -0.4010681  35.3195659
  52.1524551   0.1996472  35.2400121  51.6432761  -1.1433043  34.7613701
  46.5556176   4.7845686  33.5973888  46.4409691   3.8830943  33.8980987
  45.7000694   5.0309383  33.2458705  53.6348014  12.7263426  35.1961389
  53.1911868  11.9399805  34.8782294  54.2965227  12.9142577  34.5305280
  48.3935135  14.2559228  29.7222068  48.9442560  14.1276291  28.9499062
  47.5546611  14.5554117  29.3716960  55.7329252  13.0066226  33.2242790
  55.7147727  13.8275107  32.7323060  56.6549172  12.8820302  33.4492932
  52.1902306  10.5210356  34.0666299  52.7230643   9.7598644  33.8365607
  51.6616387  10.2284008  34.8090453  43.4257852   7.9503952  22.4148543
  44.2633074   8.3600961  22.1982250  43.6036119   7.0103394  22.3848737
  55.3222284   5.6179033  18.1032376  54.8068907   6.3883638  18.3420763
  55.0499592   4.9444169  18.7265437  52.9069395   0.4628734  23.1617614
  52.0510991   0.0735584  22.9823253  53.3196346   0.5420695  22.3017399
  54.4368541  -2.0024923  27.5609174  53.9333337  -2.0394788  26.7476979
  54.7299148  -1.0932180  27.6205830  50.6811427  -1.9186193  26.5675355
  51.5464424  -2.1143385  26.2081245  50.7488936  -2.1475842  27.4944712
  60.2956558   8.3711388  20.0385549  59.5186001   8.0322547  19.5940711
  60.9748039   8.3764011  19.3640514  55.1108587   3.4906125  19.9292157
  54.8058722   3.8052274  20.7802300  56.0639029   3.5687545  19.9719490
  53.5555019   9.6496348  21.5785111  53.0276380   8.9149108  21.2658348
  53.0542521  10.4271025  21.3325079  58.5347865   7.8445369  26.6952157
  57.8771539   8.5344630  26.7832286  59.3388264   8.2341801  27.0386143
  48.2873746   0.3116015  23.9391722  48.8617498   0.0891196  23.2064915
  48.8744729   0.3804709  24.6920324  57.3453323   6.1989742  24.7456099
  57.8585205   6.8319733  25.2477809  57.9954547   5.5990937  24.3799459
  54.6075698  16.1774066  17.5016770  53.9337396  16.4805763  18.1101728
  54.9941520  16.9803146  17.1522227  53.8234154   3.6739197  26.9914439
  52.9056716   3.8954144  26.8336127  54.2394298   3.7485508  26.1326147
  54.6069202   5.0730613  22.1217120  55.3541021   5.5852010  21.8124242
  54.8760792   4.7514665  22.9821513  52.8795852   7.5689153  19.1044074
  51.9707072   7.2848186  19.2016544  52.9090936   7.9888232  18.2447381
  58.1115120  11.1795743  22.8735241  57.6577447  10.3386653  22.9300432
  57.4809086  11.8157141  23.2110022  57.0548039   2.1087729  24.1035909
  56.3170796   1.5965115  24.4346151  57.3074813   1.6688111  23.2919186
  56.5548059  13.0172240  23.8085060  56.8471033  13.5777297  23.0897425
  57.0646679  13.3100801  24.5638219  43.4484023   5.2894668  23.0859276
  43.2508422   4.6964028  22.3610343  42.8930687   4.9846878  23.8035215
  51.4280746   5.1817774  25.2053869  51.4829356   4.2291610  25.1296346
  50.6171948   5.3377213  25.6895168  52.5771940   9.1097897  16.4432152
  52.1391370   8.3933756  15.9837790  53.3182381   9.3374012  15.8817244
  49.3673106   3.7994834  22.9644248  48.5540972   4.0989004  23.3709440
  49.8632100   3.4050523  23.6818730  51.5181684  13.7952591  24.8978513
  51.4757863  14.0213437  23.9687045  52.4344383  13.5615965  25.0464314
  54.9647318   4.2636658  31.7959142  55.3196706   4.4908131  32.6553608
  55.6119449   4.5955035  31.1736397  60.6945055   7.3855094  22.5008471
  60.5562953   7.5756690  21.5729660  60.3381274   8.1474477  22.9576522
  48.8587181   1.3713189  28.5805483  49.4986560   1.2301948  27.8828446
  48.0264712   1.0847703  28.2044085  60.7214434   9.4531621  27.5119743
  61.1550941   9.3606910  28.3602797  61.4346015   9.4289122  26.8739759
  49.6347485  10.6715620  24.6940476  50.4288083  10.1765940  24.4923050
  48.9239177  10.1433483  24.3308181  54.4542329  13.0533715  29.0452843
  54.5079352  13.6224652  29.8130559  53.5857111  13.2235600  28.6806880
  45.9430248   4.8158702  20.7700228  45.0127836   4.7543157  20.9870190
  46.0387720   4.2934654  19.9736869  45.8615797   1.3413514  23.3578470
  46.1222615   2.2558848  23.2487630  46.6832970   0.8737957  23.5075083
  47.3340723   2.7551272  30.5277294  48.0063776   2.5468634  29.8789943
  46.5070509   2.5573358  30.0882527  61.5829984   9.4955322  30.0452628
  61.7765874  10.4001132  30.2911903  61.4830602   9.0362741  30.8791213
  53.2366295  -0.6186788  32.5442955  52.5894210   0.0803162  32.4507432
  54.0067310  -0.1850644  32.9119203  56.6445093   9.6462065  35.6193509
  56.4930599   9.4172616  34.7023592  56.6349772  10.6032666  35.6324854
  53.4130429   7.2193977  30.6039775  54.3422489   7.3705137  30.4308742
  52.9921459   7.3077998  29.7488421  52.2118761  11.2444642  28.3738313
  52.0729847  10.8763426  29.2464251  51.4233357  11.7592281  28.2022270
  52.8066913  16.3453738  19.7163849  52.9818669  15.8741781  20.5309472
  52.1199701  16.9719504  19.9445110  53.7623976  10.6226244  25.7627150
  53.4273809  10.5827014  26.6584800  53.2627922   9.9570960  25.2897561
  47.7368220   6.0293874  31.2879732  47.5988018   5.2974113  31.8891271
  48.6473143   5.9402775  31.0063919  56.6983168   7.9682279  16.0364210
  56.0812338   7.2429107  15.9397263  56.2299656   8.7291639  15.6931284
  50.3650521   5.7413834  30.7763411  51.0750139   5.1007026  30.7350030
  50.3219829   5.9926729  31.6989592  58.3537299  12.6781187  33.6969990
  58.2949845  11.9940407  33.0300573  58.7556818  13.4200177  33.2450616
  49.0779455   2.7279052  32.5959051  48.5416812   2.2769790  33.2480647
  48.4896163   2.8624961  31.8529515  47.3727998  19.4943101  26.4903709
  47.6124596  20.1261625  27.1682728  46.5297195  19.1431141  26.7769069
  58.3554707  10.6420771  31.9283970  57.4681485  10.3046693  32.0510369
  58.9253258   9.9103802  32.1652735  40.0083854   6.9744863  25.2527021
  40.6954894   6.6606593  24.6648037  39.8531982   7.8786227  24.9794273
  44.8118576   1.8635059  29.6812045  44.7276765   1.2560729  28.9462455
  43.9901282   2.3544078  29.6821541  51.8855860  15.3022223  28.8945213
  51.8126031  16.1077195  29.4064518  51.4433253  15.5014189  28.0693235
  51.6745640  14.5393993  22.4048035  50.8913162  15.0815674  22.4986259
  52.3738385  15.0567973  22.8042276  54.9842290   0.3488623  25.0482240
  55.4810989  -0.4041415  24.7283310  54.2129271   0.3852940  24.4825450
  62.8372047   6.0528988  26.6900532  62.8261923   6.9353704  26.3194465
  61.9689427   5.7000539  26.4955069  54.3454544  15.2009057  31.0503372
  55.0582516  15.8356522  30.9779273  53.8544572  15.2972923  30.2343374
  56.0672070   9.1060310  22.6220664  55.1328349   9.2261773  22.4525368
  56.2448739   8.2032777  22.3580673  51.5677258   2.4906006  24.7753925
  51.1975046   1.9377046  25.4634830  52.0636351   1.8864139  24.2228925
  59.4544622   4.9477629  23.1570698  59.9205074   5.7805621  23.0831000
  59.9052122   4.4822611  23.8615956  49.3966457  12.9503501  31.8708943
  50.0975917  13.5839984  32.0238337  48.9261572  13.2918232  31.1104582
  57.5220853  11.2921451  20.1556850  57.7980697  11.1778045  21.0650724
  56.6525352  10.8938936  20.1169023  57.1967743   5.5048108  29.6961493
  56.5439193   5.7524016  29.0413946  57.5748123   4.6912247  29.3623970
  54.1574917  15.5407802  23.7989663  54.3397311  14.7229457  24.2617416
  54.9807903  15.7575494  23.3614553  54.4917082  14.4675987  21.0604712
  55.0204849  13.9568441  20.4474874  54.7545302  14.1518517  21.9250245
  53.2455316   6.2467919  36.1827530  52.5695953   6.1462049  36.8529905
  54.0682950   6.0907133  36.6463527  44.9934175  12.4839856  28.8040045
  45.5787612  11.7383544  28.9367950  44.7959014  12.7943813  29.6876709
  47.8472830  15.5191103  23.8202488  47.1783206  16.0037231  23.3366528
  47.7085700  15.7660324  24.7345866  39.5851830   5.0545456  27.5244489
  39.6235929   4.5209047  28.3181607  39.0792123   4.5280662  26.9055466
  51.9878099  17.5534847  30.4185146  52.5396407  17.7166468  31.1834231
  52.3284292  18.1439285  29.7465171  46.9642592  -0.0990003  31.0207031
  47.0283919   0.7624828  30.6084429  46.9009712  -0.7116002  30.2879389
  46.4394865   1.9733129  34.6680065  47.0666903   1.5910207  35.2817589
  45.5822784   1.7547331  35.0335758  56.8388973  12.3796104  36.2733801
  57.3828877  12.9926063  35.7788755  56.2575818  12.9375683  36.7900814
  55.1246486  15.5016822  27.4048828  54.9997626  14.7006562  26.8959774
  55.7825577  15.9963016  26.9162798  46.7454654   1.8565555  26.5825969
  46.0241240   2.4701523  26.4433442  47.5347910   2.3923320  26.5042615
  57.1881395  13.3025842  29.0328378  56.2411730  13.1831194  28.9606705
  57.5364168  12.4148341  29.1154640  49.5480968  -0.8080019  32.8566620
  50.0715370  -0.5617722  33.6192930  49.3293301   0.0240016  32.4369758
  54.1927828  13.0978559  25.2332731  54.0452790  12.1695266  25.4140301
  55.0181321  13.1198649  24.7489806  48.0590072   1.7496626  21.0913223
  48.3986145   2.2782547  20.3691831  48.5062193   2.0877032  21.8671789
  57.7961950  13.9207117  26.3197603  58.7208497  13.7149979  26.1822055
  57.6277253  13.6723519  27.2286945  50.7533513   0.1333677  30.5416291
  50.4130333  -0.6658510  30.9436971  50.0472519   0.4335387  29.9693124
  54.1889342   0.9516396  20.2264848  54.4052957   1.8341034  19.9253676
  53.7083409   0.5602610  19.4970490  48.9288564   3.9102110  26.8035592
  48.7833144   4.2242413  27.6959874  48.4513767   4.5287010  26.2506491
  50.7884946   0.9004658  26.8516482  50.7746515   0.0045751  26.5148780
  51.5057375   0.9075321  27.4854768  52.6411077   1.3341998  28.8969609
  52.3828855   2.2559068  28.8953940  52.1096118   0.9372432  29.5870074
  57.5857266  14.4392785  21.6759695  57.7594143  13.8739207  20.9233547
  58.0786157  15.2393680  21.4939185  43.4034226   6.4507454  29.7423254
  42.8587694   7.2267262  29.8743528  44.2813576   6.7978258  29.5842375
  50.1921842  -0.2180962  22.1204052  50.3137754  -1.1464316  22.3194940
  49.9023885  -0.2042276  21.2082368  63.4396657   7.2029208  23.2949995
  63.8827803   6.4536533  22.8969118  62.5623167   7.1939344  22.9123727
  58.5732438  13.7559549  18.7756593  59.2683343  14.3766242  18.9943908
  58.9155589  12.9054901  19.0508971  44.1900248   5.5777350  32.6353411
  43.4481984   5.7259986  33.2218041  43.8692992   5.8385616  31.7720160
  60.4723862  11.2059255  20.3043924  60.9975186  11.5446528  19.5793244
  60.3846214  10.2706270  20.1207059  52.1343910  15.1193328  32.4333801
  52.4431037  14.8742475  33.3056500  52.9319392  15.3239967  31.9452671
  52.1564522  17.2731238  24.6639177  51.7169513  16.7807617  25.3572034
  52.9072639  16.7304206  24.4231252  44.6356861  13.4642779  24.6663805
  45.4614881  13.1646551  24.2862449  44.2850913  12.6950401  25.1153594
  49.6038394  12.8169247  26.7361479  48.9818404  12.1539952  26.4363707
  50.2743261  12.8430379  26.0535127  42.8365466  11.3829105  25.6252739
  41.9997375  10.9551280  25.4436740  42.8089112  11.5761549  26.5623530
  49.6762922   1.2951035  36.3293985  49.7251077   2.1713158  35.9471754
  50.2185436   0.7528428  35.7565628  60.1617768  11.8392158  35.6095122
  59.3713311  11.8216297  35.0699621  59.9251122  12.3780452  36.3644158
  60.2815643   8.6884625  32.9227850  60.3313648   8.5234632  33.8643373
  60.1729566   7.8211884  32.5325731  49.1651901  11.3673171  20.2119939
  49.3140022  12.0508635  19.5586612  49.9718345  11.3478261  20.7269395
  57.5719405   4.6715553  34.2387157  58.4729268   4.5322018  33.9471155
  57.6467380   4.8370008  35.1785335  51.9062210   2.0482408  33.0840343
  51.0365520   2.3415974  32.8122932  52.1421691   2.6322853  33.8047607
  61.7833839  11.1081566  33.1669872  61.4918648  11.4711547  34.0033333
  61.1705971  10.3948575  32.9883204  62.9829522   8.6734446  25.6872442
  63.8176413   9.1124250  25.8510003  63.1188651   8.1973099  24.8680688
  60.0321028   6.2314181  31.6349930  60.5075149   6.4241827  30.8268781
  59.1086593   6.2873367  31.3893314  46.9204534   7.3938348  21.2181008
  46.6750576   6.4900678  21.4161218  47.0900449   7.3955499  20.2760486
  54.6101244  -1.7337975  30.6005764  55.1283188  -0.9976949  30.2752252
  54.2556377  -1.4273982  31.4352523  52.6647307  13.8621301  17.6831687
  52.0921274  14.4811488  17.2302159  53.2380101  14.4120663  18.2171609
  58.7322697   3.1079941  29.8678236  59.6840120   3.2078039  29.8890460
  58.5626147   2.3158210  30.3776320  56.7537076   0.1935524  30.0537636
  56.1587008   0.4740537  29.3584125  56.4686773   0.6829425  30.8254378
  55.8844567  14.1458451  18.8140269  56.8175240  14.0804013  19.0173145
  55.7967779  14.9814718  18.3554802  58.5132583  13.4624321  15.7744217
  58.4346215  13.1284185  16.6679974  59.3342250  13.9546089  15.7735689
  61.2110775   6.3286061  28.9820535  61.1787095   5.3902061  29.1680219
  61.8211398   6.4070097  28.2486360  61.3605263   3.1197104  29.0278818
  60.8444312   2.3355561  28.8408747  62.2445212   2.7915821  29.1925338
  67.0287324   7.3902068  28.1226572  67.7590713   7.1287356  28.6834275
  66.4194270   6.6530790  28.1628640  65.1102621   5.5309930  28.7201023
  64.3835785   5.3965895  28.1117515  64.6949908   5.8386759  29.5257741
  52.9332798   9.2499860  36.4848396  53.8535807   9.4278459  36.6788443
  52.8982381   8.3055905  36.3328095  42.1514963   4.4438454  25.4101671
  41.8317747   3.5903762  25.1176045  41.6048391   4.6587032  26.1659638
  45.9294870   7.1600895  29.1271177  46.1480880   8.0918002  29.1459211
  46.3420644   6.8008869  29.9125981  50.8022736   2.7334100  38.5173926
  50.7019463   3.6828457  38.4486017  50.5844278   2.4052339  37.6449996
  42.0203223   8.0641365  27.3794792  41.3266694   7.6495318  26.8664747
  42.7676214   8.1061902  26.7828211  50.6654006   6.1631239  37.3338988
  50.1821088   6.9631599  37.5402877  50.7514945   6.1739184  36.3806432
  43.9339965   7.9959619  25.2560807  43.9110654   8.0947306  24.3042690
  44.2440602   8.8424770  25.5777973  46.5927343  10.0535774  29.3707422
  47.5470597  10.0219716  29.3037353  46.3939867   9.5926398  30.1857648
  47.1826725   8.6236890  31.9378219  48.0019614   9.1180969  31.9613057
  47.4563533   7.7068858  31.9095787  56.9393322   1.0147642  21.3006175
  56.0519177   1.2997293  21.0826370  57.3547311   0.8541406  20.4533452
  60.2907858   1.0394163  25.0160514  61.0668248   1.5290616  25.2885131
  59.5655992   1.4652217  25.4732384  62.7280416   1.7521782  26.0734455
  63.3224907   1.5117518  25.3627763  62.8007000   1.0328913  26.7007991
  44.9477572  15.5955393  26.3877620  44.8132040  14.8355794  25.8215618
  44.5309634  16.3196293  25.9206408  56.0836535  10.7792317  15.3954195
  56.7872385  10.9842319  16.0111851  55.3599184  11.3469079  15.6603278
  56.9134345   6.5302178  21.5156465  56.8569547   6.9870730  20.6764097
  57.4662688   5.7692863  21.3379308  60.7239151   2.3191910  22.3406585
  60.4676086   1.9188546  23.1714792  60.0992019   3.0335704  22.2156724
  65.0351489   5.0587983  24.8477876  64.4751047   5.1281173  25.6209438
  64.4294993   4.8828968  24.1277372  48.1046698  16.4924710  26.5996062
  47.9879082  17.4370143  26.4974753  47.2839144  16.1898272  26.9881861
  57.9923233  11.2174846  17.4452655  58.8268836  10.7856045  17.2630130
  57.8307575  11.0456860  18.3729549  57.6469125   7.7206959  18.8108994
  57.5917928   7.5551231  17.8697438  57.0215180   8.4282992  18.9671184
  42.4361640   2.9575024  32.6370416  43.0820503   2.4473978  33.1257642
  42.2278791   3.6943705  33.2113842  54.9615032  10.0255871  38.1362557
  55.8306192  10.1996524  37.7749192  54.4821783  10.8450288  38.0138286
  49.1301212  17.1452972  29.8151991  50.0328459  17.1776583  30.1318486
  48.9038582  16.2153423  29.8298326  50.8854814  15.8983959  26.4762069
  49.9350445  15.8985820  26.3626442  51.1887300  15.1516693  25.9598104
  46.7759131   0.1042641  36.7345431  47.6390592  -0.2520554  36.9448755
  46.2024541  -0.2343464  37.4220835  66.6207508  21.7344497  27.5407832
  67.2585918  21.6151245  26.8371172  66.5028351  22.6825341  27.5995784
  63.4297214  21.6871925  27.4769356  63.0915725  21.5712990  26.5889891
  64.2986982  21.2863090  27.4570363  59.2884030  23.5407402  23.4666247
  58.7248895  23.4497339  22.6982535  59.1736425  22.7207306  23.9468740
  63.9116997  22.8406777  33.4355562  63.9005638  22.4459575  32.5636066
  64.0737636  22.1072850  34.0289333  56.8348462  25.0358593  26.3050468
  57.6269753  24.6949418  25.8896767  57.0745112  25.1453568  27.2252621
  64.8683588  27.2078369  18.7780712  64.2171568  27.7932450  18.3914726
  65.6627951  27.7384564  18.8375750  58.7939215  24.2967507  19.1767847
  59.5670091  23.7496494  19.0380722  59.1464614  25.1611756  19.3882308
  60.6324258  25.6243889  32.3834746  60.3414124  26.5289520  32.2681412
  61.2681242  25.6660416  33.0978815  61.5580465  23.0020737  28.9736106
  62.1544037  22.7776760  28.2593068  61.6155436  22.2605483  29.5761553
  61.1305493  20.4560173  16.8086297  61.3831014  19.9341694  16.0469760
  60.1930052  20.2926318  16.9112980  66.1748776  19.4595951  24.6161040
  66.9611865  19.0415374  24.2651457  66.4387480  20.3642043  24.7842688
  66.3458853  24.8968801  19.3149697  65.7104686  24.9703428  20.0270601
  66.0156260  25.4862400  18.6368776  71.5757203  19.3971184  25.5194018
  72.3082375  18.8270401  25.7531848  70.8196559  19.0092785  25.9600524
  60.8501782  22.3588279  19.0110671  60.7338040  21.6833182  19.6791756
  60.9604042  21.8720653  18.1942825  63.1933323  21.8198426  22.7157361
  62.8291530  21.2929047  23.4270282  64.0500439  21.4296895  22.5423846
  69.0982624  13.1092758  29.9788627  68.7665948  13.9788169  29.7549842
  68.5028237  12.7929042  30.6582657  62.8338810  16.8488325  17.7118709
  63.0013212  17.7168562  18.0789180  62.6435979  17.0115607  16.7879998
  65.5914143  25.3105304  29.3784540  65.2914866  26.2130343  29.2700347
  65.2465203  25.0437488  30.2305692  59.0426625  21.7619101  25.4121244
  58.1177121  21.6295315  25.6198936  59.2911038  22.5413320  25.9091186
  68.9911287  17.8287845  27.0581977  68.0828164  17.7603253  26.7640738
  68.9398883  18.3059789  27.8863802  62.8128031  19.3045983  18.6965376
  62.6927656  19.7503034  19.5350856  62.1180619  19.6531301  18.1378914
  56.4035436  21.4052375  26.2465033  56.5327817  21.6586854  27.1604445
  55.7232887  21.9980083  25.9269688  60.5734923  32.0749625  22.3455507
  60.4958953  33.0257450  22.4243988  59.9696567  31.7295497  23.0030434
  63.0652153  19.2477490  35.0016874  62.2885487  19.8071410  34.9919739
  63.7042716  19.7334273  35.5231744  70.8572933  16.0304283  28.8359851
  70.2147314  16.3236816  28.1899645  70.3527862  15.9157203  29.6413047
  68.5113097  19.7767456  19.5245710  69.4230953  20.0094843  19.3493408
  68.0022744  20.3604500  18.9620789  61.3198525  22.0562943  34.5634841
  62.0613209  22.5947987  34.2869665  60.6135510  22.6829232  34.7206393
  66.7953865  24.1992084  33.1607003  67.2037221  23.7574494  32.4161635
  66.0731126  23.6244711  33.4141196  63.1484935  19.1364691  30.5340560
  63.9946130  19.5604104  30.6775209  63.0883572  18.4798315  31.2279123
  67.1182679  24.7593275  26.9159292  66.4891542  24.9238989  26.2135359
  66.7308341  25.1734884  27.6870256  70.9971911  25.6947712  24.2703655
  70.3122949  26.0746614  23.7200689  71.0815760  26.3043039  25.0035603
  66.2984380  16.7969059  32.1921733  66.0545312  17.5511120  31.6556009
  66.5744311  17.1754407  33.0268980  68.2522843  23.3407671  30.8698999
  68.4639738  23.9839431  30.1933380  68.2052591  22.5069988  30.4020929
  65.8549072  15.9525492  27.7735571  64.9933551  16.2506746  28.0652309
  65.8811506  16.1695891  26.8416604  62.6710641  24.4967683  24.1809377
  63.1348987  24.7755386  23.3913999  62.4067439  23.5951127  23.9982467
  59.5634722  24.0439164  27.1189140  60.1336079  24.4726433  26.4806624
  60.1542834  23.7621749  27.8173326  61.6079527  20.6190835  20.9898942
  62.3103571  21.0711879  21.4572868  61.2760156  19.9774654  21.6178835
  60.0559889  19.2102592  35.3650151  59.4258549  19.8918872  35.5985548
  59.9495977  19.0985673  34.4203289  55.3504861  18.8774388  26.2916075
  54.5603915  19.1331916  25.8156186  55.8416109  19.6922726  26.3968116
  69.3668671  26.2179627  29.0421356  70.1886114  25.8159814  28.7604038
  69.3631074  26.1147861  29.9937472  57.3019607  19.2418967  23.2499552
  56.5050770  19.3537661  23.7683048  57.0745199  19.5805619  22.3840443
  63.1325274  25.7663670  31.1982067  63.1969707  26.2284077  32.0340239
  62.4236198  25.1361035  31.3264377  53.6342564  19.1304878  28.7231066
  53.8850603  20.0151888  28.9888642  54.1702113  18.9509480  27.9506158
  77.4574664  22.5618375  25.3906328  76.7038372  21.9925773  25.2350332
  77.5922205  22.5281040  26.3376962  62.8473292  27.4331778  21.0661047
  62.7118967  28.2783313  21.4945895  63.3883104  27.6351055  20.3026981
  59.3340631  13.5123357  37.7275402  58.9407577  12.9589556  38.4023046
  60.1506772  13.8233936  38.1181920  56.3002689  24.9507216  21.6388972
  56.8127210  25.7450466  21.7894537  56.9525402  24.2533506  21.5722574
  58.1097574  28.0672972  23.7211725  58.2864202  28.9890937  23.5332709
  58.9054407  27.7531391  24.1506105  62.2508592  14.9281237  35.3195659
  62.9918306  15.5288390  35.2400121  62.4826515  14.1858874  34.7613701
  57.3949930  20.1137604  33.5973888  57.2803446  19.2122861  33.8980987
  56.5394448  20.3601301  33.2458705  64.4741768  28.0555344  35.1961389
  64.0305622  27.2691723  34.8782294  65.1358982  28.2434495  34.5305280
  59.2328889  29.5851146  29.7222068  59.7836315  29.4568209  28.9499062
  58.3940365  29.8846035  29.3716960  66.5723006  28.3358144  33.2242790
  66.5541482  29.1567025  32.7323060  67.4942926  28.2112219  33.4492932
  63.0296060  25.8502274  34.0666299  63.5624397  25.0890562  33.8365607
  62.5010142  25.5575925  34.8090453  66.1965755  10.9562340  29.5959940
  65.8530025  11.8463981  29.5199051  66.5644718  10.7663997  28.7329525
  54.2651606  23.2795870  22.4148543  55.1026828  23.6892878  22.1982250
  54.4429874  22.3395312  22.3848737  66.1616038  20.9470951  18.1032376
  65.6462662  21.7175555  18.3420763  65.8893347  20.2736087  18.7265437
  63.7463149  15.7920651  23.1617614  62.8904745  15.4027502  22.9823253
  64.1590101  15.8712612  22.3017399  65.2762296  13.3266995  27.5609174
  64.7727091  13.2897130  26.7476979  65.5692903  14.2359737  27.6205830
  61.5205182  13.4105724  26.5675355  62.3858178  13.2148533  26.2081245
  61.5882691  13.1816076  27.4944712  71.1350312  23.7003305  20.0385549
  70.3579755  23.3614465  19.5940711  71.8141793  23.7055928  19.3640514
  65.9502341  18.8198043  19.9292157  65.6452477  19.1344192  20.7802300
  66.9032783  18.8979463  19.9719490  64.3948773  24.9788266  21.5785111
  63.8670135  24.2441026  21.2658348  63.8936276  25.7562942  21.3325079
  69.3741619  23.1737287  26.6952157  68.7165294  23.8636548  26.7832286
  70.1782018  23.5633718  27.0386143  59.1267501  15.6407932  23.9391722
  59.7011253  15.4183114  23.2064915  59.7138483  15.7096627  24.6920324
  68.1847078  21.5281659  24.7456099  68.6978960  22.1611651  25.2477809
  68.8348302  20.9282855  24.3799459  59.4537088  17.6712393  17.9587608
  58.6174400  18.0087080  18.2796882  59.3141858  17.5361373  17.0214745
  61.4290168  12.5149181  22.6666792  60.7754581  12.1998198  22.0423406
  61.3870643  11.8924922  23.3926615  62.5401373  22.7968476  14.5820084
  61.6328435  22.5657730  14.7811233  63.0372405  22.0006096  14.7694065
  65.4469452  31.5065983  17.5016770  64.7731151  31.8097680  18.1101728
  65.8335274  32.3095064  17.1522227  64.6627909  19.0031115  26.9914439
  63.7450470  19.2246062  26.8336127  65.0788052  19.0777425  26.1326147
  65.4462957  20.4022530  22.1217120  66.1934776  20.9143928  21.8124242
  65.7154546  20.0806583  22.9821513  63.7189607  22.8981071  19.1044074
  62.8100826  22.6140104  19.2016544  63.7484691  23.3180150  18.2447381
  68.9508874  26.5087661  22.8735241  68.4971201  25.6678571  22.9300432
  68.3202841  27.1449059  23.2110022  67.8941794  17.4379647  24.1035909
  67.1564551  16.9257033  24.4346151  68.1468567  16.9980028  23.2919186
  67.3941813  28.3464157  23.8085060  67.6864788  28.9069214  23.0897425
  67.9040434  28.6392718  24.5638219  67.9953421  10.2155899  24.6977678
  68.3012298   9.3553262  24.4103593  68.7206026  10.8073519  24.4976672
  54.2877777  20.6186585  23.0859276  54.0902177  20.0255946  22.3610343
  53.7324441  20.3138795  23.8035215  62.2674501  20.5109692  25.2053869
  62.3223111  19.5583528  25.1296346  61.4565703  20.6669131  25.6895168
  63.4165695  24.4389815  16.4432152  62.9785124  23.7225674  15.9837790
  64.1576135  24.6665930  15.8817244  60.2066861  19.1286751  22.9644248
  59.3934726  19.4280922  23.3709440  60.7025855  18.7342440  23.6818730
  62.3575439  29.1244508  24.8978513  62.3151617  29.3505355  23.9687045
  63.2738137  28.8907883  25.0464314  65.8041072  19.5928576  31.7959142
  66.1590460  19.8200049  32.6553608  66.4513204  19.9246953  31.1736397
  71.5338809  22.7147012  22.5008471  71.3956708  22.9048608  21.5729660
  71.1775028  23.4766395  22.9576522  59.6980935  16.7005107  28.5805483
  60.3380315  16.5593866  27.8828446  58.8658466  16.4139620  28.2044085
  71.5608189  24.7823539  27.5119743  71.9944696  24.6898828  28.3602797
  72.2739770  24.7581039  26.8739759  60.4741239  26.0007537  24.6940476
  61.2681838  25.5057858  24.4923050  59.7632932  25.4725401  24.3308181
  65.2936084  28.3825633  29.0452843  65.3473106  28.9516569  29.8130559
  64.4250865  28.5527518  28.6806880  56.7824003  20.1450619  20.7700228
  55.8521591  20.0835075  20.9870190  56.8781475  19.6226572  19.9736869
  56.7009552  16.6705432  23.3578470  56.9616369  17.5850765  23.2487630
  57.5226724  16.2029875  23.5075083  58.1734477  18.0843189  30.5277294
  58.8457531  17.8760551  29.8789943  57.3464264  17.8865275  30.0882527
  72.4223739  24.8247240  30.0452628  72.6159629  25.7293050  30.2911903
  72.3224357  24.3654659  30.8791213  64.0760049  14.7105130  32.5442955
  63.4287964  15.4095080  32.4507432  64.8461065  15.1441274  32.9119203
  67.4838847  24.9753982  35.6193509  67.3324354  24.7464534  34.7023592
  67.4743527  25.9324584  35.6324854  64.2524184  22.5485895  30.6039775
  65.1816244  22.6997055  30.4308742  63.8315214  22.6369916  29.7488421
  63.0512515  26.5736559  28.3738313  62.9123601  26.2055344  29.2464251
  62.2627112  27.0884199  28.2022270  63.6460667  31.6745656  19.7163849
  63.8212423  31.2033699  20.5309472  62.9593455  32.3011422  19.9445110
  64.6017731  25.9518162  25.7627150  64.2667563  25.9118932  26.6584800
  64.1021676  25.2862878  25.2897561  58.5761974  21.3585792  31.2879732
  58.4381772  20.6266031  31.8891271  59.4866898  21.2694692  31.0063919
  67.5376922  23.2974196  16.0364210  66.9206093  22.5721025  15.9397263
  67.0693411  24.0583557  15.6931284  61.2044275  21.0705751  30.7763411
  61.9143894  20.4298944  30.7350030  61.1613583  21.3218646  31.6989592
  69.1931054  28.0073105  33.6969990  69.1343600  27.3232325  33.0300573
  69.5950572  28.7492095  33.2450616  59.9173209  18.0570969  32.5959051
  59.3810566  17.6061708  33.2480647  59.3289918  18.1916878  31.8529515
  58.2121753  34.8235019  26.4903709  58.4518351  35.4553543  27.1682728
  57.3690949  34.4723059  26.7769069  59.3275468  17.5159621  15.1585514
  58.4504934  17.3948422  14.7947761  59.8033221  16.7245699  14.9064403
  69.1948461  25.9712689  31.9283970  68.3075240  25.6338611  32.0510369
  69.7647012  25.2395720  32.1652735  50.8477608  22.3036781  25.2527021
  51.5348648  21.9898511  24.6648037  50.6925737  23.2078145  24.9794273
  55.6512330  17.1926977  29.6812045  55.5670519  16.5852647  28.9462455
  54.8295037  17.6835995  29.6821541  62.7249614  30.6314141  28.8945213
  62.6519786  31.4369113  29.4064518  62.2827008  30.8306107  28.0693235
  62.5139394  29.8685911  22.4048035  61.7306916  30.4107591  22.4986259
  63.2132139  30.3859891  22.8042276  65.8236044  15.6780541  25.0482240
  66.3204744  14.9250503  24.7283310  65.0523026  15.7144857  24.4825450
  73.6765802  21.3820906  26.6900532  73.6655678  22.2645622  26.3194465
  72.8083181  21.0292457  26.4955069  65.1848298  30.5300975  31.0503372
  65.8976270  31.1648440  30.9779273  64.6938327  30.6264841  30.2343374
  66.9065825  24.4352228  22.6220664  65.9722104  24.5553690  22.4525368
  67.0842493  23.5324695  22.3580673  62.4071013  17.8197924  24.7753925
  62.0368801  17.2668964  25.4634830  62.9030105  17.2156057  24.2228925
  70.2938376  20.2769547  23.1570698  70.7598828  21.1097539  23.0831000
  70.7445877  19.8114529  23.8615956  60.2360212  28.2795419  31.8708943
  60.9369671  28.9131902  32.0238337  59.7655327  28.6210150  31.1104582
  68.3614607  26.6213368  20.1556850  68.6374451  26.5069963  21.0650724
  67.4919106  26.2230853  20.1169023  68.2655039  12.6450134  27.1961599
  67.3518119  12.8754361  27.3643806  68.6948140  12.7288578  28.0475631
  68.0361498  20.8340026  29.6961493  67.3832948  21.0815933  29.0413946
  68.4141877  20.0204164  29.3623970  64.9968671  30.8699719  23.7989663
  65.1791066  30.0521375  24.2617416  65.8201657  31.0867411  23.3614553
  65.3310837  29.7967904  21.0604712  65.8598603  29.2860359  20.4474874
  65.5939056  29.4810435  21.9250245  64.0849071  21.5759837  36.1827530
  63.4089708  21.4753966  36.8529905  64.9076704  21.4199051  36.6463527
  55.8327930  27.8131774  28.8040045  56.4181366  27.0675462  28.9367950
  55.6352768  28.1235730  29.6876709  58.6866585  30.8483021  23.8202488
  58.0176960  31.3329149  23.3366528  58.5479455  31.0952241  24.7345866
  50.4245584  20.3837374  27.5244489  50.4629684  19.8500965  28.3181607
  49.9185877  19.8572579  26.9055466  62.8271853  32.8826765  30.4185146
  63.3790161  33.0458386  31.1834231  63.1678047  33.4731202  29.7465171
  57.8036347  15.2301914  31.0207031  57.8677673  16.0916745  30.6084429
  57.7403467  14.6175916  30.2879389  57.2788619  17.3025047  34.6680065
  57.9060658  16.9202124  35.2817589  56.4216538  17.0839249  35.0335758
  67.6782728  27.7088022  36.2733801  68.2222632  28.3217980  35.7788755
  67.0969573  28.2667600  36.7900814  54.0554162  19.1101476  20.5998420
  54.3507603  18.2012154  20.5465474  53.1542198  19.0889215  20.2779422
  65.9640241  30.8308740  27.4048828  65.8391380  30.0298480  26.8959774
  66.6219332  31.3254933  26.9162798  57.5848409  17.1857473  26.5825969
  56.8634995  17.7993440  26.4433442  58.3741665  17.7215237  26.5042615
  68.0275149  28.6317760  29.0328378  67.0805485  28.5123111  28.9606705
  68.3757922  27.7440258  29.1154640  60.3874722  14.5211899  32.8566620
  60.9109124  14.7674196  33.6192930  60.1687056  15.3531934  32.4369758
  55.7842004  16.7915574  20.7237745  55.4554710  15.9112953  20.5412851
  56.1381374  16.7363242  21.6114134  65.0321582  28.4270476  25.2332731
  64.8846545  27.4987184  25.4140301  65.8575076  28.4490567  24.7489806
  58.8983827  17.0788543  21.0913223  59.2379899  17.6074465  20.3691831
  59.3455947  17.4168950  21.8671789  68.6355704  29.2499035  26.3197603
  69.5602252  29.0441896  26.1822055  68.4671008  29.0015436  27.2286945
  61.5927267  15.4625594  30.5416291  61.2524088  14.6633407  30.9436971
  60.8866274  15.7627305  29.9693124  62.2443739  12.5474907  28.9943614
  63.0669809  12.0735385  28.8722504  62.4881803  13.3265390  29.4942300
  60.8851974  15.5763165  19.2906516  61.6060336  15.9544418  18.7870232
  60.2617278  16.2952042  19.3941494  65.0283097  16.2808314  20.2264848
  65.2446711  17.1632952  19.9253676  64.5477164  15.8894527  19.4970490
  59.7682318  19.2394027  26.8035592  59.6226899  19.5534330  27.6959874
  59.2907522  19.8578928  26.2506491  61.6278701  16.2296575  26.8516482
  61.6140270  15.3337669  26.5148780  62.3451129  16.2367239  27.4854768
  63.4804832  16.6633915  28.8969609  63.2222609  17.5850986  28.8953940
  62.9489872  16.2664350  29.5870074  68.4251020  29.7684703  21.6759695
  68.5987898  29.2031125  20.9233547  68.9179912  30.5685597  21.4939185
  54.2427980  21.7799372  29.7423254  53.6981448  22.5559180  29.8743528
  55.1207330  22.1270176  29.5842375  61.0315597  15.1110956  22.1204052
  61.1531508  14.1827602  22.3194940  60.7417639  15.1249641  21.2082368
  63.9006787  12.7965866  25.2570772  63.9228484  12.8605199  24.3022752
  64.3174846  11.9570375  25.4511278  74.2790412  22.5321126  23.2949995
  74.7221558  21.7828451  22.8969118  73.4016922  22.5231262  22.9123727
  69.4126193  29.0851467  18.7756593  70.1077098  29.7058160  18.9943908
  69.7549343  28.2346818  19.0508971  55.0294002  20.9069268  32.6353411
  54.2875738  21.0551903  33.2218041  54.7086746  21.1677534  31.7720160
  71.3117616  26.5351173  20.3043924  71.8368940  26.8738445  19.5793244
  71.2239969  25.5998188  20.1207059  62.9958277  32.6023156  24.6639177
  62.5563267  32.1099534  25.3572034  63.7466394  32.0596123  24.4231252
  55.4750616  28.7934697  24.6663805  56.3008636  28.4938469  24.2862449
  55.1244668  28.0242319  25.1153594  60.4432149  28.1461165  26.7361479
  59.8212158  27.4831870  26.4363707  61.1137016  28.1722297  26.0535127
  53.6759221  26.7121023  25.6252739  52.8391129  26.2843197  25.4436740
  53.6482866  26.9053466  26.5623530  60.5156676  16.6242953  36.3293985
  60.5644832  17.5005076  35.9471754  61.0579191  16.0820346  35.7565628
  71.0011522  27.1684076  35.6095122  70.2107066  27.1508215  35.0699621
  70.7644877  27.7072370  36.3644158  71.1209397  24.0176543  32.9227850
  71.1707402  23.8526550  33.8643373  71.0123320  23.1503802  32.5325731
  60.0045656  26.6965088  20.2119939  60.1533776  27.3800553  19.5586612
  60.8112099  26.6770178  20.7269395  68.4113160  20.0007471  34.2387157
  69.3123022  19.8613935  33.9471155  68.4861134  20.1661925  35.1785335
  62.7455965  17.3774325  33.0840343  61.8759274  17.6707891  32.8122932
  62.9815445  17.9614770  33.8047607  72.6227594  26.4373484  33.1669872
  72.3312402  26.8003465  34.0033333  72.0099725  25.7240492  32.9883204
  73.8223276  24.0026364  25.6872442  74.6570168  24.4416168  25.8510003
  73.9582405  23.5265017  24.8680688  70.8714782  21.5606099  31.6349930
  71.3468904  21.7533745  30.8268781  69.9480348  21.6165284  31.3893314
  57.7598289  22.7230266  21.2181008  57.5144331  21.8192596  21.4161218
  57.9294203  22.7247416  20.2760486  65.4494999  13.5953942  30.6005764
  65.9676943  14.3314969  30.2752252  65.0950131  13.9017936  31.4352523
  57.0293936  18.4558623  18.7167170  56.3363181  18.5302978  18.0607206
  56.7845688  17.6918967  19.2388687  65.7007593  10.0154225  26.1206660
  65.9809347   9.3477414  26.7467087  66.4858200  10.2083320  25.6081324
  63.5041061  29.1913219  17.6831687  62.9315028  29.8103406  17.2302159
  64.0773855  29.7412580  18.2171609  69.5716451  18.4371859  29.8678236
  70.5233874  18.5369956  29.8890460  69.4019902  17.6450127  30.3776320
  67.5930831  15.5227442  30.0537636  66.9980763  15.8032455  29.3584125
  67.3080527  16.0121343  30.8254378  66.7238321  29.4750369  18.8140269
  67.6568994  29.4095930  19.0173145  66.6361534  30.3106636  18.3554802
  69.3526338  28.7916239  15.7744217  69.2739969  28.4576103  16.6679974
  70.1736005  29.2838007  15.7735689  72.0504529  21.6577978  28.9820535
  72.0180849  20.7193979  29.1680219  72.6605153  21.7362015  28.2486360
  63.8887860  20.5274031  15.0247739  64.8346965  20.3980240  15.0936157
  63.5102105  19.7888693  15.5017167  72.1999017  18.4489022  29.0278818
  71.6838066  17.6647479  28.8408747  73.0838966  18.1207738  29.1925338
  69.8609744  12.1930037  24.9874631  69.6634566  11.8845126  25.8717963
  70.4709450  12.9191676  25.1172561  77.8681079  22.7193985  28.1226572
  78.5984467  22.4579273  28.6834275  77.2588024  21.9822707  28.1628640
  75.9496376  20.8601848  28.7201023  75.2229540  20.7257813  28.1117515
  75.5343663  21.1678676  29.5257741  63.7726552  24.5791778  36.4848396
  64.6929562  24.7570377  36.6788443  63.7376135  23.6347823  36.3328095
  62.0730777  18.4524008  14.9602624  61.1662232  18.1557121  15.0365338
  62.3506758  18.1553826  14.0936911  52.9908717  19.7730371  25.4101671
  52.6711502  18.9195679  25.1176045  52.4442146  19.9878949  26.1659638
  56.7688625  22.4892812  29.1271177  56.9874635  23.4209920  29.1459211
  57.1814399  22.1300787  29.9125981  63.6892843  12.9960898  21.1146866
  62.8793571  12.6507982  21.4902112  64.3777260  12.6868441  21.7034477
  65.6183391  12.0738944  22.7371162  66.1714430  12.4934398  23.3961185
  65.8553477  11.1474692  22.7794118  61.6416490  18.0626018  38.5173926
  61.5413217  19.0120375  38.4486017  61.4238032  17.7344257  37.6449996
  60.8429562  15.3110943  15.1014604  61.7048726  15.6365841  15.3610421
  61.0279906  14.5242439  14.5887669  52.8596977  23.3933283  27.3794792
  52.1660449  22.9787235  26.8664747  53.6069968  23.4353819  26.7828211
  68.9962198  14.1839469  22.2449827  68.4160867  14.8424274  21.8627879
  68.7298131  13.3616814  21.8337244  67.4465764  13.5844527  24.4471147
  67.9465543  13.6961062  23.6385466  68.0901372  13.2805580  25.0871955
  61.5047760  21.4923157  37.3338988  61.0214842  22.2923517  37.5402877
  61.5908699  21.5031102  36.3806432  54.7733720  23.3251536  25.2560807
  54.7504408  23.4239224  24.3042690  55.0834356  24.1716687  25.5777973
  57.4321098  25.3827692  29.3707422  58.3864351  25.3511634  29.3037353
  57.2333621  24.9218315  30.1857648  58.0220480  23.9528808  31.9378219
  58.8413369  24.4472886  31.9613057  58.2957288  23.0360776  31.9095787
  67.7787076  16.3439560  21.3006175  66.8912931  16.6289210  21.0826370
  68.1941065  16.1833323  20.4533452  71.1301612  16.3686081  25.0160514
  71.9062002  16.8582533  25.2885131  70.4049746  16.7944135  25.4732384
  73.5674171  17.0813700  26.0734455  74.1618662  16.8409436  25.3627763
  73.6400755  16.3620831  26.7007991  55.7871327  30.9247311  26.3877620
  55.6525795  30.1647712  25.8215618  55.3703389  31.6488211  25.9206408
  66.9230290  26.1084235  15.3954195  67.6266140  26.3134237  16.0111851
  66.1992938  26.6760996  15.6603278  67.7528100  21.8594096  21.5156465
  67.6963301  22.3162647  20.6764097  68.3056442  21.0984780  21.3379308
  71.5632906  17.6483828  22.3406585  71.3069840  17.2480463  23.1714792
  70.9385774  18.3627622  22.2156724  75.8745244  20.3879901  24.8477876
  75.3144802  20.4573090  25.6209438  75.2688747  20.2120886  24.1277372
  58.9440452  31.8216628  26.5996062  58.8272837  32.7662061  26.4974753
  58.1232899  31.5190190  26.9881861  68.8316987  26.5466764  17.4452655
  69.6662591  26.1147962  17.2630130  68.6701330  26.3748777  18.3729549
  68.4862879  23.0498877  18.8108994  68.4311683  22.8843148  17.8697438
  67.8608934  23.7574910  18.9671184  53.2755394  18.2866941  32.6370416
  53.9214258  17.7765895  33.1257642  53.0672545  19.0235623  33.2113842
  65.8008786  25.3547789  38.1362557  66.6699946  25.5288441  37.7749192
  65.3215538  26.1742206  38.0138286  61.7959005  12.5506986  18.3894313
  61.7837674  13.4948826  18.5462584  62.6882427  12.3677131  18.0953774
  59.9694967  32.4744890  29.8151991  60.8722213  32.5068500  30.1318486
  59.7432337  31.5445341  29.8298326  61.7248569  31.2275876  26.4762069
  60.7744200  31.2277738  26.3626442  62.0281055  30.4808611  25.9598104
  65.6111124   9.1449763  22.6440249  64.8443520   8.5908249  22.7896932
  66.0221829   9.2171631  23.5054401  57.6152885  15.4334558  36.7345431
  58.4784347  15.0771363  36.9448755  57.0418296  15.0948453  37.4220835
  77.4601262  37.0636415  27.5407832  78.0979672  36.9443162  26.8371172
  77.3422105  38.0117259  27.5995784  74.2690968  37.0163843  27.4769356
  73.9309480  36.9004908  26.5889891  75.1380737  36.6155008  27.4570363
  70.1277784  38.8699319  23.4666247  69.5642649  38.7789256  22.6982535
  70.0130179  38.0499224  23.9468740  67.6742216  40.3650511  26.3050468
  68.4663508  40.0241336  25.8896767  67.9138866  40.4745486  27.2252621
  75.7077343  42.5370287  18.7780712  75.0565323  43.1224367  18.3914726
  76.5021706  43.0676482  18.8375750  69.6332970  39.6259424  19.1767847
  70.4063846  39.0788411  19.0380722  69.9858369  40.4903674  19.3882308
  71.9699248  35.7852090  16.8086297  72.2224768  35.2633612  16.0469760
  71.0323807  35.6218236  16.9112980  77.0142531  34.7887869  24.6161040
  77.8005620  34.3707292  24.2651457  77.2781235  35.6933961  24.7842688
  77.1852608  40.2260719  19.3149697  76.5498441  40.2995346  20.0270601
  76.8550014  40.8154318  18.6368776  82.4150958  34.7263102  25.5194018
  83.1476130  34.1562319  25.7531848  81.6590313  34.3384702  25.9600524
  71.6895537  37.6880196  19.0110671  71.5731795  37.0125100  19.6791756
  71.7997796  37.2012570  18.1942825  74.0327077  37.1490343  22.7157361
  73.6685285  36.6220964  23.4270282  74.8894193  36.7588812  22.5423846
  79.9376378  28.4384676  29.9788627  79.6059703  29.3080087  29.7549842
  79.3421991  28.1220960  30.6582657  73.6732564  32.1780243  17.7118709
  73.8406967  33.0460479  18.0789180  73.4829733  32.3407525  16.7879998
  69.8820379  37.0911019  25.4121244  68.9570876  36.9587233  25.6198936
  70.1304792  37.8705238  25.9091186  79.8305041  33.1579762  27.0581977
  78.9221919  33.0895171  26.7640738  79.7792637  33.6351707  27.8863802
  73.6521785  34.6337901  18.6965376  73.5321410  35.0794951  19.5350856
  72.9574374  34.9823218  18.1378914  67.2429190  36.7344292  26.2465033
  67.3721571  36.9878771  27.1604445  66.5626641  37.3272000  25.9269688
  71.4128677  47.4041542  22.3455507  71.3352707  48.3549367  22.4243988
  70.8090321  47.0587415  23.0030434  81.6966688  31.3596201  28.8359851
  81.0541068  31.6528734  28.1899645  81.1921616  31.2449121  29.6413047
  79.3506851  35.1059374  19.5245710  80.2624708  35.3386761  19.3493408
  78.8416499  35.6896418  18.9620789  81.8365666  41.0239630  24.2703655
  81.1516704  41.4038531  23.7200689  81.9209515  41.6334957  25.0035603
  77.1378134  32.1260977  32.1921733  76.8939066  32.8803037  31.6556009
  77.4138065  32.5046324  33.0268980  76.6942826  31.2817410  27.7735571
  75.8327305  31.5798663  28.0652309  76.7205261  31.4987809  26.8416604
  73.5104396  39.8259600  24.1809377  73.9742741  40.1047303  23.3913999
  73.2461194  38.9243045  23.9982467  70.4028477  39.3731082  27.1189140
  70.9729834  39.8018350  26.4806624  70.9936589  39.0913667  27.8173326
  72.4473282  35.9482753  20.9898942  73.1497325  36.4003796  21.4572868
  72.1153910  35.3066572  21.6178835  66.1898616  34.2066305  26.2916075
  65.3997670  34.4623834  25.8156186  66.6809863  35.0214643  26.3968116
  68.1413361  34.5710885  23.2499552  67.3444524  34.6829579  23.7683048
  67.9138953  34.9097537  22.3840443  64.4736319  34.4596796  28.7231066
  64.7244357  35.3443806  28.9888642  65.0095867  34.2801397  27.9506158
  88.2968418  37.8910293  25.3906328  87.5432127  37.3217691  25.2350332
  88.4315959  37.8572957  26.3376962  73.6867046  42.7623695  21.0661047
  73.5512721  43.6075231  21.4945895  74.2276859  42.9642973  20.3026981
  70.1734386  28.8415275  37.7275402  69.7801332  28.2881474  38.4023046
  70.9900526  29.1525854  38.1181920  67.1396444  40.2799133  21.6388972
  67.6520964  41.0742384  21.7894537  67.7919157  39.5825424  21.5722574
  68.9491328  43.3964890  23.7211725  69.1257957  44.3182854  23.5332709
  69.7448162  43.0823309  24.1506105  73.0902347  30.2573154  35.3195659
  73.8312060  30.8580307  35.2400121  73.3220270  29.5150792  34.7613701
  77.0359510  26.2854257  29.5959940  76.6923779  27.1755899  29.5199051
  77.4038472  26.0955915  28.7329525  65.1045360  38.6087788  22.4148543
  65.9420582  39.0184796  22.1982250  65.2823628  37.6687230  22.3848737
  77.0009793  36.2762868  18.1032376  76.4856416  37.0467473  18.3420763
  76.7287101  35.6028004  18.7265437  74.5856904  31.1212569  23.1617614
  73.7298500  30.7319419  22.9823253  74.9983855  31.2004530  22.3017399
  76.1156050  28.6558912  27.5609174  75.6120846  28.6189047  26.7476979
  76.4086657  29.5651655  27.6205830  72.3598936  28.7397642  26.5675355
  73.2251933  28.5440451  26.2081245  72.4276445  28.5107994  27.4944712
  81.9744067  39.0295223  20.0385549  81.1973510  38.6906382  19.5940711
  82.6535548  39.0347846  19.3640514  76.7896096  34.1489960  19.9292157
  76.4846231  34.4636110  20.7802300  77.7426538  34.2271380  19.9719490
  75.2342528  40.3080184  21.5785111  74.7063889  39.5732943  21.2658348
  74.7330030  41.0854860  21.3325079  80.2135374  38.5029204  26.6952157
  79.5559048  39.1928466  26.7832286  81.0175773  38.8925636  27.0386143
  69.9661255  30.9699850  23.9391722  70.5405007  30.7475031  23.2064915
  70.5532238  31.0388544  24.6920324  79.0240832  36.8573577  24.7456099
  79.5372714  37.4903569  25.2477809  79.6742056  36.2574772  24.3799459
  70.2930842  33.0004311  17.9587608  69.4568155  33.3378998  18.2796882
  70.1535612  32.8653291  17.0214745  72.2683923  27.8441099  22.6666792
  71.6148335  27.5290116  22.0423406  72.2264397  27.2216839  23.3926615
  73.3795128  38.1260394  14.5820084  72.4722190  37.8949647  14.7811233
  73.8766160  37.3298013  14.7694065  76.2863207  46.8357901  17.5016770
  75.6124905  47.1389598  18.1101728  76.6729029  47.6386981  17.1522227
  75.5021663  34.3323032  26.9914439  74.5844225  34.5537979  26.8336127
  75.9181807  34.4069343  26.1326147  76.2856711  35.7314448  22.1217120
  77.0328530  36.2435845  21.8124242  76.5548301  35.4098501  22.9821513
  74.5583361  38.2272989  19.1044074  73.6494581  37.9432022  19.2016544
  74.5878445  38.6472067  18.2447381  79.7902629  41.8379578  22.8735241
  79.3364956  40.9970488  22.9300432  79.1596595  42.4740977  23.2110022
  78.7335548  32.7671564  24.1035909  77.9958305  32.2548951  24.4346151
  78.9862322  32.3271946  23.2919186  78.2335568  43.6756075  23.8085060
  78.5258542  44.2361132  23.0897425  78.7434188  43.9684636  24.5638219
  78.8347176  25.5447816  24.6977678  79.1406052  24.6845180  24.4103593
  79.5599780  26.1365437  24.4976672  65.1271532  35.9478503  23.0859276
  64.9295931  35.3547864  22.3610343  64.5718196  35.6430713  23.8035215
  74.2559449  39.7681733  16.4432152  73.8178879  39.0517591  15.9837790
  74.9969890  39.9957847  15.8817244  71.0460615  34.4578669  22.9644248
  70.2328481  34.7572840  23.3709440  71.5419609  34.0634358  23.6818730
  73.1969193  44.4536426  24.8978513  73.1545372  44.6797272  23.9687045
  74.1131892  44.2199801  25.0464314  82.3732564  38.0438930  22.5008471
  82.2350462  38.2340526  21.5729660  82.0168783  38.8058312  22.9576522
  82.4001943  40.1115457  27.5119743  82.8338450  40.0190746  28.3602797
  83.1133524  40.0872957  26.8739759  71.3134994  41.3299455  24.6940476
  72.1075592  40.8349775  24.4923050  70.6026686  40.8017318  24.3308181
  67.6217757  35.4742537  20.7700228  66.6915345  35.4126992  20.9870190
  67.7175229  34.9518490  19.9736869  67.5403306  31.9997350  23.3578470
  67.8010124  32.9142683  23.2487630  68.3620479  31.5321792  23.5075083
  74.9153804  30.0397048  32.5442955  74.2681719  30.7386997  32.4507432
  75.6854819  30.4733192  32.9119203  74.4854422  47.0037574  19.7163849
  74.6606178  46.5325617  20.5309472  73.7987210  47.6303340  19.9445110
  78.3770677  38.6266114  16.0364210  77.7599847  37.9012942  15.9397263
  77.9087165  39.3875474  15.6931284  70.1669223  32.8451538  15.1585514
  69.2898689  32.7240339  14.7947761  70.6426976  32.0537617  14.9064403
  61.6871363  37.6328698  25.2527021  62.3742403  37.3190428  24.6648037
  61.5319491  38.5370063  24.9794273  73.3533149  45.1977829  22.4048035
  72.5700670  45.7399509  22.4986259  74.0525894  45.7151808  22.8042276
  76.6629799  31.0072458  25.0482240  77.1598498  30.2542421  24.7283310
  75.8916780  31.0436775  24.4825450  84.5159556  36.7112824  26.6900532
  84.5049432  37.5937539  26.3194465  83.6476936  36.3584375  26.4955069
  77.7459579  39.7644145  22.6220664  76.8115858  39.8845608  22.4525368
  77.9236248  38.8616612  22.3580673  73.2464767  33.1489841  24.7753925
  72.8762555  32.5960882  25.4634830  73.7423860  32.5447975  24.2228925
  81.1332131  35.6061465  23.1570698  81.5992583  36.4389456  23.0831000
  81.5839631  35.1406446  23.8615956  79.2008362  41.9505286  20.1556850
  79.4768206  41.8361881  21.0650724  78.3312861  41.5522771  20.1169023
  79.1048794  27.9742052  27.1961599  78.1911873  28.2046279  27.3643806
  79.5341895  28.0580496  28.0475631  78.8755252  36.1631944  29.6961493
  78.2226702  36.4107851  29.0413946  79.2535632  35.3496082  29.3623970
  76.1704591  45.1259822  21.0604712  76.6992358  44.6152277  20.4474874
  76.4332811  44.8102352  21.9250245  69.5260339  46.1774939  23.8202488
  68.8570715  46.6621066  23.3366528  69.3873209  46.4244159  24.7345866
  61.2639339  35.7129292  27.5244489  61.3023438  35.1792882  28.3181607
  60.7579632  35.1864497  26.9055466  64.8947916  34.4393394  20.5998420
  65.1901357  33.5304072  20.5465474  63.9935952  34.4181133  20.2779422
  68.4242163  32.5149390  26.5825969  67.7028749  33.1285358  26.4433442
  69.2135419  33.0507155  26.5042615  66.6235758  32.1207491  20.7237745
  66.2948464  31.2404870  20.5412851  66.9775129  32.0655160  21.6114134
  69.7377581  32.4080461  21.0913223  70.0773654  32.9366382  20.3691831
  70.1849702  32.7460867  21.8671789  73.0837494  27.8766824  28.9943614
  73.9063563  27.4027302  28.8722504  73.3275557  28.6557308  29.4942300
  71.7245728  30.9055083  19.2906516  72.4454091  31.2836336  18.7870232
  71.1011032  31.6243960  19.3941494  75.8676851  31.6100232  20.2264848
  76.0840466  32.4924870  19.9253676  75.3870918  31.2186445  19.4970490
  70.6076073  34.5685945  26.8035592  70.4620653  34.8826248  27.6959874
  70.1301276  35.1870845  26.2506491  72.4672455  31.5588493  26.8516482
  72.4534024  30.6629586  26.5148780  73.1844884  31.5659157  27.4854768
  74.3198586  31.9925833  28.8969609  74.0616364  32.9142904  28.8953940
  73.7883627  31.5956268  29.5870074  79.2644775  45.0976620  21.6759695
  79.4381652  44.5323043  20.9233547  79.7573666  45.8977515  21.4939185
  71.8709351  30.4402873  22.1204052  71.9925263  29.5119519  22.3194940
  71.5811394  30.4541559  21.2082368  74.7400542  28.1257784  25.2570772
  74.7622239  28.1897117  24.3022752  75.1568601  27.2862292  25.4511278
  85.1184166  37.8613043  23.2949995  85.5615312  37.1120368  22.8969118
  84.2410676  37.8523180  22.9123727  80.2519947  44.4143385  18.7756593
  80.9470852  45.0350077  18.9943908  80.5943098  43.5638736  19.0508971
  82.1511371  41.8643090  20.3043924  82.6762695  42.2030363  19.5793244
  82.0633723  40.9290106  20.1207059  66.3144370  44.1226614  24.6663805
  67.1402390  43.8230386  24.2862449  65.9638422  43.3534237  25.1153594
  64.5152975  42.0412941  25.6252739  63.6784884  41.6135115  25.4436740
  64.4876621  42.2345384  26.5623530  70.8439410  42.0257006  20.2119939
  70.9927531  42.7092470  19.5586612  71.6505854  42.0062096  20.7269395
  79.2506914  35.3299388  34.2387157  80.1516777  35.1905853  33.9471155
  79.3254889  35.4953843  35.1785335  83.4621348  41.7665402  33.1669872
  83.1706157  42.1295382  34.0033333  82.8493480  41.0532410  32.9883204
  84.6617031  39.3318281  25.6872442  85.4963922  39.7708086  25.8510003
  84.7976160  38.8556935  24.8680688  81.7108537  36.8898016  31.6349930
  82.1862658  37.0825663  30.8268781  80.7874102  36.9457202  31.3893314
  68.5992043  38.0522184  21.2181008  68.3538085  37.1484514  21.4161218
  68.7687958  38.0539334  20.2760486  76.2888753  28.9245860  30.6005764
  76.8070697  29.6606887  30.2752252  75.9343886  29.2309853  31.4352523
  67.8687691  33.7850541  18.7167170  67.1756936  33.8594896  18.0607206
  67.6239443  33.0210885  19.2388687  76.5401347  25.3446142  26.1206660
  76.8203101  24.6769332  26.7467087  77.3251954  25.5375238  25.6081324
  74.3434816  44.5205136  17.6831687  73.7708783  45.1395323  17.2302159
  74.9167610  45.0704498  18.2171609  80.4110206  33.7663776  29.8678236
  81.3627629  33.8661874  29.8890460  80.2413656  32.9742045  30.3776320
  78.4324585  30.8519360  30.0537636  77.8374517  31.1324372  29.3584125
  78.1474282  31.3413261  30.8254378  77.5632076  44.8042286  18.8140269
  78.4962749  44.7387848  19.0173145  77.4755288  45.6398553  18.3554802
  80.1920092  44.1208157  15.7744217  80.1133724  43.7868020  16.6679974
  81.0129759  44.6129925  15.7735689  82.8898283  36.9869896  28.9820535
  82.8574604  36.0485897  29.1680219  83.4998907  37.0653933  28.2486360
  74.7281614  35.8565949  15.0247739  75.6740719  35.7272157  15.0936157
  74.3495859  35.1180611  15.5017167  83.0392772  33.7780940  29.0278818
  82.5231821  32.9939396  28.8408747  83.9232721  33.4499656  29.1925338
  80.7003499  27.5221955  24.9874631  80.5028320  27.2137043  25.8717963
  81.3103204  28.2483594  25.1172561  88.7074833  38.0485903  28.1226572
  89.4378222  37.7871191  28.6834275  88.0981779  37.3114625  28.1628640
  86.7890130  36.1893766  28.7201023  86.0623294  36.0549730  28.1117515
  86.3737417  36.4970594  29.5257741  72.9124532  33.7815925  14.9602624
  72.0055987  33.4849038  15.0365338  73.1900513  33.4845744  14.0936911
  63.8302472  35.1022289  25.4101671  63.5105256  34.2487597  25.1176045
  63.2835900  35.3170867  26.1659638  74.5286597  28.3252815  21.1146866
  73.7187326  27.9799900  21.4902112  75.2171014  28.0160359  21.7034477
  76.4577146  27.4030862  22.7371162  77.0108184  27.8226315  23.3961185
  76.6947232  26.4766610  22.7794118  72.4810245  33.3917936  38.5173926
  72.3806972  34.3412293  38.4486017  72.2631787  33.0636175  37.6449996
  71.6823316  30.6402861  15.1014604  72.5442480  30.9657759  15.3610421
  71.8673660  29.8534357  14.5887669  63.6990732  38.7225200  27.3794792
  63.0054203  38.3079153  26.8664747  64.4463723  38.7645737  26.7828211
  79.8355953  29.5131387  22.2449827  79.2554622  30.1716191  21.8627879
  79.5691885  28.6908732  21.8337244  78.2859519  28.9136445  24.4471147
  78.7859297  29.0252979  23.6385466  78.9295127  28.6097498  25.0871955
  65.6127474  38.6543454  25.2560807  65.5898163  38.7531141  24.3042690
  65.9228111  39.5008605  25.5777973  78.6180831  31.6731478  21.3006175
  77.7306686  31.9581128  21.0826370  79.0334820  31.5125241  20.4533452
  81.9695367  31.6977999  25.0160514  82.7455757  32.1874451  25.2885131
  81.2443501  32.1236053  25.4732384  84.4067925  32.4105618  26.0734455
  85.0012416  32.1701354  25.3627763  84.4794509  31.6912748  26.7007991
  66.6265081  46.2539229  26.3877620  66.4919549  45.4939630  25.8215618
  66.2097143  46.9780129  25.9206408  77.7624044  41.4376152  15.3954195
  78.4659894  41.6426155  16.0111851  77.0386693  42.0052914  15.6603278
  78.5921854  37.1886013  21.5156465  78.5357056  37.6454565  20.6764097
  79.1450197  36.4276698  21.3379308  82.4026660  32.9775745  22.3406585
  82.1463595  32.5772381  23.1714792  81.7779528  33.6919539  22.2156724
  86.7138998  35.7171819  24.8477876  86.1538556  35.7865008  25.6209438
  86.1082502  35.5412803  24.1277372  79.6710742  41.8758681  17.4452655
  80.5056345  41.4439880  17.2630130  79.5095084  41.7040695  18.3729549
  79.3256634  38.3790795  18.8108994  79.2705437  38.2135066  17.8697438
  78.7002689  39.0866828  18.9671184  72.6352759  27.8798904  18.3894313
  72.6231429  28.8240744  18.5462584  73.5276181  27.6969049  18.0953774
  76.4504879  24.4741680  22.6440249  75.6837274  23.9200167  22.7896932
  76.8615584  24.5463549  23.5054401  68.4546640  30.7626476  36.7345431
  69.3178101  30.4063281  36.9448755  67.8812050  30.4240371  37.4220835
  86.5471097  57.8662205  18.7780712  85.8959077  58.4516285  18.3914726
  87.3415460  58.3968400  18.8375750  80.4726724  54.9551342  19.1767847
  81.2457600  54.4080329  19.0380722  80.8252123  55.8195591  19.3882308
  82.8093002  51.1144008  16.8086297  83.0618523  50.5925529  16.0469760
  81.8717561  50.9510153  16.9112980  88.0246362  55.5552637  19.3149697
  87.3892195  55.6287263  20.0270601  87.6943769  56.1446236  18.6368776
  82.5289291  53.0172114  19.0110671  82.4125549  52.3417017  19.6791756
  82.6391551  52.5304488  18.1942825  84.8720832  52.4782261  22.7157361
  84.5079039  51.9512882  23.4270282  85.7287948  52.0880730  22.5423846
  90.7770133  43.7676594  29.9788627  90.4453457  44.6372005  29.7549842
  90.1815746  43.4512878  30.6582657  84.5126319  47.5072161  17.7118709
  84.6800721  48.3752397  18.0789180  84.3223488  47.6699442  16.7879998
  84.4915540  49.9629818  18.6965376  84.3715165  50.4086869  19.5350856
  83.7968128  50.3115136  18.1378914  82.2522432  62.7333460  22.3455507
  82.1746462  63.6841285  22.4243988  81.6484075  62.3879333  23.0030434
  90.1900606  50.4351291  19.5245710  91.1018462  50.6678678  19.3493408
  89.6810253  51.0188336  18.9620789  99.1362173  53.2202211  25.3906328
  98.3825881  52.6509609  25.2350332  99.2709714  53.1864875  26.3376962
  84.5260801  58.0915613  21.0661047  84.3906476  58.9367149  21.4945895
  85.0670613  58.2934891  20.3026981  87.8753264  41.6146175  29.5959940
  87.5317534  42.5047817  29.5199051  88.2432227  41.4247832  28.7329525
  87.8403547  51.6054786  18.1032376  87.3250171  52.3759391  18.3420763
  87.5680856  50.9319922  18.7265437  85.4250658  46.4504487  23.1617614
  84.5692254  46.0611337  22.9823253  85.8377610  46.5296448  22.3017399
  86.9549805  43.9850830  27.5609174  86.4514600  43.9480965  26.7476979
  87.2480412  44.8943573  27.6205830  83.1992691  44.0689560  26.5675355
  84.0645687  43.8732368  26.2081245  83.2670200  43.8399912  27.4944712
  92.8137821  54.3587141  20.0385549  92.0367264  54.0198300  19.5940711
  93.4929302  54.3639764  19.3640514  87.6289850  49.4781878  19.9292157
  87.3239986  49.7928027  20.7802300  88.5820292  49.5563298  19.9719490
  81.1324597  48.3296229  17.9587608  80.2961909  48.6670915  18.2796882
  80.9929366  48.1945208  17.0214745  83.1077677  43.1733017  22.6666792
  82.4542090  42.8582034  22.0423406  83.0658152  42.5508757  23.3926615
  84.2188882  53.4552312  14.5820084  83.3115944  53.2241565  14.7811233
  84.7159914  52.6589931  14.7694065  87.1256961  62.1649819  17.5016770
  86.4518660  62.4681516  18.1101728  87.5122783  62.9678899  17.1522227
  87.1250466  51.0606366  22.1217120  87.8722285  51.5727763  21.8124242
  87.3942055  50.7390419  22.9821513  85.3977116  53.5564907  19.1044074
  84.4888335  53.2723939  19.2016544  85.4272200  53.9763985  18.2447381
  89.6740930  40.8739734  24.6977678  89.9799807  40.0137097  24.4103593
  90.3993535  41.4657354  24.4976672  85.0953204  55.0973650  16.4432152
  84.6572633  54.3809509  15.9837790  85.8363644  55.3249765  15.8817244
  93.2126318  53.3730847  22.5008471  93.0744217  53.5632443  21.5729660
  92.8562537  54.1350230  22.9576522  86.9723593  59.0409468  29.0452843
  87.0260615  59.6100405  29.8130559  86.1038374  59.2111353  28.6806880
  85.7547558  45.3688965  32.5442955  85.1075473  46.0678915  32.4507432
  86.5248574  45.8025109  32.9119203  85.3248176  62.3329491  19.7163849
  85.4999932  61.8617534  20.5309472  84.6380964  62.9595257  19.9445110
  89.2164431  53.9558032  16.0364210  88.5993602  53.2304860  15.9397263
  88.7480920  54.7167392  15.6931284  81.0062977  48.1743456  15.1585514
  80.1292443  48.0532257  14.7947761  81.4820730  47.3829534  14.9064403
  84.1926903  60.5269746  22.4048035  83.4094425  61.0691427  22.4986259
  84.8919648  61.0443726  22.8042276  87.5023553  46.3364376  25.0482240
  87.9992253  45.5834338  24.7283310  86.7310535  46.3728693  24.4825450
  91.9725885  50.9353382  23.1570698  92.4386337  51.7681374  23.0831000
  92.4233386  50.4698364  23.8615956  90.0402116  57.2797204  20.1556850
  90.3161960  57.1653798  21.0650724  89.1706615  56.8814689  20.1169023
  89.9442548  43.3033969  27.1961599  89.0305628  43.5338196  27.3643806
  90.3735649  43.3872414  28.0475631  86.6756180  61.5283555  23.7989663
  86.8578575  60.7105211  24.2617416  87.4989166  61.7451247  23.3614553
  87.0098346  60.4551740  21.0604712  87.5386112  59.9444194  20.4474874
  87.2726565  60.1394270  21.9250245  87.6427750  61.4892575  27.4048828
  87.5178889  60.6882315  26.8959774  88.3006841  61.9838769  26.9162798
  89.7062658  59.2901596  29.0328378  88.7592994  59.1706947  28.9606705
  90.0545431  58.4024094  29.1154640  83.9231248  43.2058742  28.9943614
  84.7457318  42.7319220  28.8722504  84.1669312  43.9849226  29.4942300
  82.5639483  46.2347000  19.2906516  83.2847845  46.6128253  18.7870232
  81.9404787  46.9535877  19.3941494  86.7070606  46.9392149  20.2264848
  86.9234220  47.8216787  19.9253676  86.2264673  46.5478363  19.4970490
  90.1038529  60.4268538  21.6759695  90.2775407  59.8614960  20.9233547
  90.5967421  61.2269433  21.4939185  82.7103106  45.7694791  22.1204052
  82.8319017  44.8411437  22.3194940  82.4205148  45.7833477  21.2082368
  85.5794296  43.4549701  25.2570772  85.6015993  43.5189034  24.3022752
  85.9962355  42.6154210  25.4511278  95.9577921  53.1904961  23.2949995
  96.4009067  52.4412286  22.8969118  95.0804431  53.1815097  22.9123727
  91.0913702  59.7435302  18.7756593  91.7864607  60.3641995  18.9943908
  91.4336852  58.8930654  19.0508971  92.9905125  57.1935008  20.3043924
  93.5156449  57.5322281  19.5793244  92.9027478  56.2582023  20.1207059
  81.6833165  57.3548924  20.2119939  81.8321285  58.0384388  19.5586612
  82.4899608  57.3354014  20.7269395  87.1282508  44.2537778  30.6005764
  87.6464452  44.9898805  30.2752252  86.7737640  44.5601771  31.4352523
  78.7081445  49.1142459  18.7167170  78.0150690  49.1886814  18.0607206
  78.4633197  48.3502802  19.2388687  87.3795102  40.6738060  26.1206660
  87.6596856  40.0061249  26.7467087  88.1645709  40.8667156  25.6081324
  85.1828570  59.8497054  17.6831687  84.6102537  60.4687241  17.2302159
  85.7561364  60.3996416  18.2171609  88.4025830  60.1334204  18.8140269
  89.3356503  60.0679766  19.0173145  88.3149043  60.9690471  18.3554802
  91.0313847  59.4500074  15.7744217  90.9527478  59.1159938  16.6679974
  91.8523514  59.9421842  15.7735689  85.5675369  51.1857867  15.0247739
  86.5134474  51.0564075  15.0936157  85.1889614  50.4472529  15.5017167
  91.5397253  42.8513873  24.9874631  91.3422075  42.5428961  25.8717963
  92.1496959  43.5775512  25.1172561  99.5468588  53.3777821  28.1226572
 100.2771976  53.1163109  28.6834275  98.9375533  52.6406543  28.1628640
  97.6283885  51.5185683  28.7201023  96.9017049  51.3841648  28.1117515
  97.2131172  51.8262512  29.5257741  83.7518286  49.1107843  14.9602624
  82.8449741  48.8140956  15.0365338  84.0294267  48.8137661  14.0936911
  85.3680352  43.6544733  21.1146866  84.5581080  43.3091818  21.4902112
  86.0564769  43.3452277  21.7034477  87.2970900  42.7322780  22.7371162
  87.8501939  43.1518233  23.3961185  87.5340986  41.8058528  22.7794118
  82.5217071  45.9694778  15.1014604  83.3836235  46.2949677  15.3610421
  82.7067415  45.1826274  14.5887669  90.6749707  44.8423305  22.2449827
  90.0948376  45.5008109  21.8627879  90.4085640  44.0200649  21.8337244
  89.1253273  44.2428363  24.4471147  89.6253052  44.3544897  23.6385466
  89.7688881  43.9389415  25.0871955  89.4574585  47.0023395  21.3006175
  88.5700440  47.2873046  21.0826370  89.8728574  46.8417159  20.4533452
  92.8089121  47.0269916  25.0160514  93.5849511  47.5166369  25.2885131
  92.0837255  47.4527970  25.4732384  95.2461680  47.7397535  26.0734455
  95.8406171  47.4993271  25.3627763  95.3188264  47.0204666  26.7007991
  88.6017799  56.7668070  15.3954195  89.3053649  56.9718072  16.0111851
  87.8780447  57.3344832  15.6603278  89.4315609  52.5177931  21.5156465
  89.3750810  52.9746483  20.6764097  89.9843951  51.7568616  21.3379308
  93.2420415  48.3067663  22.3406585  92.9857349  47.9064299  23.1714792
  92.6173283  49.0211457  22.2156724  97.5532753  51.0463736  24.8477876
  96.9932311  51.1156926  25.6209438  96.9476256  50.8704721  24.1277372
  90.5104496  57.2050599  17.4452655  91.3450100  56.7731798  17.2630130
  90.3488839  57.0332613  18.3729549  90.1650388  53.7082712  18.8108994
  90.1099192  53.5426984  17.8697438  89.5396443  54.4158745  18.9671184
  83.4746514  43.2090821  18.3894313  83.4625183  44.1532661  18.5462584
  84.3669936  43.0260967  18.0953774  87.2898633  39.8033598  22.6440249
  86.5231029  39.2492085  22.7896932  87.7009338  39.8755467  23.5054401
  99.1388771  67.7220250  27.5407832  99.7767181  67.6026998  26.8371172
  99.0209614  68.6701094  27.5995784  95.9478477  67.6747678  27.4769356
  95.6096989  67.5588743  26.5889891  96.8168246  67.2738843  27.4570363
  91.8065293  69.5283155  23.4666247  91.2430158  69.4373092  22.6982535
  91.6917688  68.7083059  23.9468740  96.4298260  68.8282530  33.4355562
  96.4186901  68.4335328  32.5636066  96.5918900  68.0948603  34.0289333
  89.3529725  71.0234346  26.3050468  90.1451017  70.6825171  25.8896767
  89.5926375  71.1329321  27.2252621  91.3120479  70.2843260  19.1767847
  92.0851355  69.7372247  19.0380722  91.6645878  71.1487509  19.3882308
  93.1505521  71.6119642  32.3834746  92.8595387  72.5165273  32.2681412
  93.7862506  71.6536169  33.0978815  94.0761728  68.9896490  28.9736106
  94.6725301  68.7652513  28.2593068  94.1336700  68.2481236  29.5761553
  93.6486757  66.4435926  16.8086297  93.9012277  65.9217447  16.0469760
  92.7111316  66.2802071  16.9112980  98.6930040  65.4471704  24.6161040
  99.4793129  65.0291127  24.2651457  98.9568744  66.3517796  24.7842688
  98.8640117  70.8844554  19.3149697  98.2285950  70.9579181  20.0270601
  98.5337523  71.4738153  18.6368776 104.0938467  65.3846937  25.5194018
 104.8263639  64.8146154  25.7531848 103.3377822  64.9968538  25.9600524
  93.3683045  68.3464032  19.0110671  93.2519304  67.6708935  19.6791756
  93.4785305  67.8596406  18.1942825  95.7114586  67.8074179  22.7157361
  95.3472794  67.2804800  23.4270282  96.5681702  67.4172648  22.5423846
 101.6163887  59.0968511  29.9788627 101.2847212  59.9663922  29.7549842
 101.0209500  58.7804795  30.6582657  95.3520073  62.8364078  17.7118709
  95.5194476  63.7044315  18.0789180  95.1617242  62.9991360  16.7879998
  98.1095407  71.2981057  29.3784540  97.8096130  72.2006096  29.2700347
  97.7646466  71.0313241  30.2305692  91.5607888  67.7494854  25.4121244
  90.6358385  67.6171068  25.6198936  91.8092301  68.5289073  25.9091186
 101.5092550  63.8163598  27.0581977 100.6009428  63.7479006  26.7640738
 101.4580146  64.2935542  27.8863802  95.3309294  65.2921736  18.6965376
  95.2108919  65.7378787  19.5350856  94.6361883  65.6407054  18.1378914
  93.0916186  78.0625378  22.3455507  93.0140216  79.0133203  22.4243988
  92.4877830  77.7171250  23.0030434  95.5833416  65.2353243  35.0016874
  94.8066750  65.7947163  34.9919739  96.2223979  65.7210026  35.5231744
 103.3754197  62.0180036  28.8359851 102.7328577  62.3112569  28.1899645
 102.8709125  61.9032956  29.6413047 101.0294360  65.7643209  19.5245710
 101.9412217  65.9970596  19.3493408 100.5204008  66.3480253  18.9620789
  93.8379788  68.0438696  34.5634841  94.5794473  68.5823740  34.2869665
  93.1316774  68.6704985  34.7206393  99.3135128  70.1867837  33.1607003
  99.7218484  69.7450247  32.4161635  98.5912390  69.6120464  33.4141196
  95.6666198  65.1240444  30.5340560  96.5127393  65.5479857  30.6775209
  95.6064836  64.4674068  31.2279123  99.6363943  70.7469028  26.9159292
  99.0072805  70.9114742  26.2135359  99.2489605  71.1610637  27.6870256
 103.5153175  71.6823465  24.2703655 102.8304213  72.0622367  23.7200689
 103.5997024  72.2918792  25.0035603  98.8165643  62.7844812  32.1921733
  98.5726575  63.5386873  31.6556009  99.0925574  63.1630160  33.0268980
 100.7704106  69.3283424  30.8698999 100.9821001  69.9715184  30.1933380
 100.7233854  68.4945741  30.4020929  98.3730335  61.9401245  27.7735571
  97.5114814  62.2382499  28.0652309  98.3992770  62.1571644  26.8416604
  95.1891905  70.4843436  24.1809377  95.6530250  70.7631139  23.3913999
  94.9248703  69.5826880  23.9982467  92.0815986  70.0314917  27.1189140
  92.6517343  70.4602186  26.4806624  92.6724098  69.7497502  27.8173326
  94.1260791  66.6066588  20.9898942  94.8284834  67.0587632  21.4572868
  93.7941419  65.9650407  21.6178835  92.5741152  65.1978345  35.3650151
  91.9439813  65.8794626  35.5985548  92.4677240  65.0861426  34.4203289
  87.8686125  64.8650141  26.2916075  87.0785179  65.1207669  25.8156186
  88.3597372  65.6798479  26.3968116 101.8849934  72.2055380  29.0421356
 102.7067378  71.8035567  28.7604038 101.8812337  72.1023614  29.9937472
  89.8200870  65.2294720  23.2499552  89.0232033  65.3413414  23.7683048
  89.5926462  65.5681372  22.3840443  95.6506538  71.7539423  31.1982067
  95.7150970  72.2159830  32.0340239  94.9417462  71.1236788  31.3264377
  95.3654555  73.4207531  21.0661047  95.2300230  74.2659066  21.4945895
  95.9064368  73.6226808  20.3026981  88.8183953  70.9382969  21.6388972
  89.3308473  71.7326219  21.7894537  89.4706666  70.2409259  21.5722574
  90.6278837  74.0548725  23.7211725  90.8045466  74.9766690  23.5332709
  91.4235671  73.7407144  24.1506105  94.7689856  60.9156990  35.3195659
  95.5099569  61.5164143  35.2400121  95.0007779  60.1734627  34.7613701
  89.9131194  66.1013357  33.5973888  89.7984709  65.1998614  33.8980987
  89.0575712  66.3477054  33.2458705  96.9923032  74.0431097  35.1961389
  96.5486886  73.2567476  34.8782294  97.6540245  74.2310248  34.5305280
  91.7510153  75.5726899  29.7222068  92.3017578  75.4443962  28.9499062
  90.9121629  75.8721788  29.3716960  99.0904270  74.3233897  33.2242790
  99.0722745  75.1442778  32.7323060 100.0124190  74.1987972  33.4492932
  95.5477324  71.8378027  34.0666299  96.0805661  71.0766315  33.8365607
  95.0191405  71.5451678  34.8090453  98.7147019  56.9438093  29.5959940
  98.3711288  57.8339734  29.5199051  99.0825981  56.7539750  28.7329525
  86.7832869  69.2671623  22.4148543  87.6208091  69.6768631  22.1982250
  86.9611137  68.3271065  22.3848737  98.6797302  66.9346704  18.1032376
  98.1643925  67.7051308  18.3420763  98.4074610  66.2611840  18.7265437
  96.2644413  61.7796404  23.1617614  95.4086009  61.3903255  22.9823253
  96.6771364  61.8588365  22.3017399  97.7943559  59.3142748  27.5609174
  97.2908355  59.2772883  26.7476979  98.0874166  60.2235490  27.6205830
  94.0386445  59.3981477  26.5675355  94.9039442  59.2024286  26.2081245
  94.1063954  59.1691829  27.4944712  98.4683605  64.8073796  19.9292157
  98.1633740  65.1219945  20.7802300  99.4214047  64.8855216  19.9719490
  96.9130037  70.9664019  21.5785111  96.3851398  70.2316779  21.2658348
  96.4117539  71.7438695  21.3325079 101.8922883  69.1613040  26.6952157
 101.2346557  69.8512301  26.7832286 102.6963282  69.5509471  27.0386143
  91.6448764  61.6283685  23.9391722  92.2192516  61.4058867  23.2064915
  92.2319747  61.6972380  24.6920324 100.7028341  67.5157412  24.7456099
 101.2160223  68.1487404  25.2477809 101.3529565  66.9158608  24.3799459
  91.9718351  63.6588146  17.9587608  91.1355664  63.9962833  18.2796882
  91.8323121  63.5237126  17.0214745  93.9471432  58.5024934  22.6666792
  93.2935844  58.1873951  22.0423406  93.9051906  57.8800675  23.3926615
  97.1809172  64.9906868  26.9914439  96.2631734  65.2121815  26.8336127
  97.5969316  65.0653178  26.1326147  97.9644220  66.3898283  22.1217120
  98.7116039  66.9019681  21.8124242  98.2335810  66.0682336  22.9821513
  96.2370870  68.8856824  19.1044074  95.3282089  68.6015857  19.2016544
  96.2665954  69.3055903  18.2447381 101.4690138  72.4963414  22.8735241
 101.0152465  71.6554324  22.9300432 100.8384104  73.1324812  23.2110022
 100.4123057  63.4255400  24.1035909  99.6745814  62.9132786  24.4346151
 100.6649831  62.9855781  23.2919186  99.9123077  74.3339910  23.8085060
 100.2046051  74.8944967  23.0897425 100.4221697  74.6268471  24.5638219
 100.5134685  56.2031652  24.6977678 100.8193561  55.3429015  24.4103593
 101.2387289  56.7949272  24.4976672  86.8059041  66.6062338  23.0859276
  86.6083440  66.0131699  22.3610343  86.2505705  66.3014548  23.8035215
  94.7855764  66.4985445  25.2053869  94.8404374  65.5459281  25.1296346
  93.9746966  66.6544884  25.6895168  92.7248124  65.1162505  22.9644248
  91.9115990  65.4156675  23.3709440  93.2207118  64.7218193  23.6818730
  94.8756702  75.1120261  24.8978513  94.8332881  75.3381108  23.9687045
  95.7919401  74.8783636  25.0464314  98.3222336  65.5804329  31.7959142
  98.6771724  65.8075802  32.6553608  98.9694467  65.9122706  31.1736397
 104.0520073  68.7022765  22.5008471 103.9137971  68.8924361  21.5729660
 103.6956292  69.4642148  22.9576522  92.2162199  62.6880860  28.5805483
  92.8561578  62.5469619  27.8828446  91.3839729  62.4015373  28.2044085
 104.0789452  70.7699292  27.5119743 104.5125959  70.6774581  28.3602797
 104.7921033  70.7456792  26.8739759  92.9922503  71.9883290  24.6940476
  93.7863101  71.4933611  24.4923050  92.2814195  71.4601154  24.3308181
  97.8117347  74.3701386  29.0452843  97.8654370  74.9392322  29.8130559
  96.9432129  74.5403271  28.6806880  89.3005266  66.1326372  20.7700228
  88.3702854  66.0710828  20.9870190  89.3962738  65.6102325  19.9736869
  89.2190815  62.6581185  23.3578470  89.4797633  63.5726518  23.2487630
  90.0407988  62.1905628  23.5075083  90.6915741  64.0718942  30.5277294
  91.3638794  63.8636304  29.8789943  89.8645527  63.8741028  30.0882527
  96.5941313  60.6980883  32.5442955  95.9469228  61.3970833  32.4507432
  97.3642328  61.1317027  32.9119203 100.0020111  70.9629735  35.6193509
  99.8505617  70.7340287  34.7023592  99.9924790  71.9200337  35.6324854
  96.7705447  68.5361648  30.6039775  97.6997507  68.6872808  30.4308742
  96.3496477  68.6245669  29.7488421  95.5693779  72.5612312  28.3738313
  95.4304865  72.1931097  29.2464251  94.7808375  73.0759952  28.2022270
  97.1198994  71.9393915  25.7627150  96.7848827  71.8994685  26.6584800
  96.6202940  71.2738631  25.2897561  91.0943238  67.3461545  31.2879732
  90.9563036  66.6141784  31.8891271  92.0048161  67.2570445  31.0063919
  93.7225539  67.0581505  30.7763411  94.4325157  66.4174697  30.7350030
  93.6794847  67.3094399  31.6989592 101.7112317  73.9948858  33.6969990
 101.6524863  73.3108078  33.0300573 102.1131836  74.7367848  33.2450616
  92.4354473  64.0446722  32.5959051  91.8991830  63.5937461  33.2480647
  91.8471181  64.1792631  31.8529515  90.7303016  80.8110772  26.4903709
  90.9699614  81.4429296  27.1682728  89.8872213  80.4598812  26.7769069
  91.8456732  63.5035374  15.1585514  90.9686198  63.3824175  14.7947761
  92.3214485  62.7121452  14.9064403 101.7129725  71.9588442  31.9283970
 100.8256503  71.6214364  32.0510369 102.2828276  71.2271473  32.1652735
  83.3658872  68.2912534  25.2527021  84.0529912  67.9774264  24.6648037
  83.2107000  69.1953898  24.9794273  88.1693594  63.1802730  29.6812045
  88.0851783  62.5728400  28.9462455  87.3476300  63.6711748  29.6821541
  95.2430878  76.6189894  28.8945213  95.1701049  77.4244866  29.4064518
  94.8008271  76.8181860  28.0693235  95.0320658  75.8561664  22.4048035
  94.2488179  76.3983344  22.4986259  95.7313403  76.3735644  22.8042276
  98.3417308  61.6656294  25.0482240  98.8386007  60.9126256  24.7283310
  97.5704289  61.7020610  24.4825450  97.7029561  76.5176728  31.0503372
  98.4157534  77.1524193  30.9779273  97.2119590  76.6140594  30.2343374
  99.4247088  70.4227981  22.6220664  98.4903367  70.5429443  22.4525368
  99.6023757  69.5200448  22.3580673  94.9252276  63.8073677  24.7753925
  94.5550064  63.2544717  25.4634830  95.4211369  63.2031810  24.2228925
 102.8119640  66.2645300  23.1570698 103.2780092  67.0973292  23.0831000
 103.2627140  65.7990282  23.8615956  92.7541475  74.2671172  31.8708943
  93.4550935  74.9007655  32.0238337  92.2836590  74.6085903  31.1104582
 100.8795871  72.6089121  20.1556850 101.1555715  72.4945716  21.0650724
 100.0100370  72.2106606  20.1169023 100.7836302  58.6325887  27.1961599
  99.8699382  58.8630114  27.3643806 101.2129404  58.7164331  28.0475631
 100.5542761  66.8215779  29.6961493  99.9014211  67.0691687  29.0413946
 100.9323141  66.0079917  29.3623970  97.5149935  76.8575472  23.7989663
  97.6972329  76.0397128  24.2617416  98.3382921  77.0743165  23.3614553
  96.6030334  67.5635590  36.1827530  95.9270971  67.4629719  36.8529905
  97.4257968  67.4074804  36.6463527  88.3509193  73.8007527  28.8040045
  88.9362630  73.0551215  28.9367950  88.1534032  74.1111483  29.6876709
  91.2047848  76.8358774  23.8202488  90.5358224  77.3204902  23.3366528
  91.0660718  77.0827995  24.7345866  95.3453117  78.8702518  30.4185146
  95.8971425  79.0334139  31.1834231  95.6859310  79.4606955  29.7465171
  90.3217610  61.2177667  31.0207031  90.3858937  62.0792498  30.6084429
  90.2584730  60.6051669  30.2879389  89.7969883  63.2900800  34.6680065
  90.4241921  62.9077877  35.2817589  88.9397801  63.0715002  35.0335758
 100.1963991  73.6963775  36.2733801 100.7403895  74.3093733  35.7788755
  99.6150836  74.2543354  36.7900814  86.5735425  65.0977229  20.5998420
  86.8688866  64.1887907  20.5465474  85.6723461  65.0764968  20.2779422
  98.4821504  76.8184493  27.4048828  98.3572644  76.0174233  26.8959774
  99.1400595  77.3130686  26.9162798  90.1029672  63.1733226  26.5825969
  89.3816258  63.7869193  26.4433442  90.8922928  63.7090990  26.5042615
 100.5456413  74.6193513  29.0328378  99.5986748  74.4998864  28.9606705
 100.8939186  73.7316011  29.1154640  88.3023267  62.7791327  20.7237745
  87.9735973  61.8988706  20.5412851  88.6562638  62.7238995  21.6114134
  97.5502846  74.4146229  25.2332731  97.4027808  73.4862937  25.4140301
  98.3756339  74.4366320  24.7489806  91.4165090  63.0664296  21.0913223
  91.7561163  63.5950218  20.3691831  91.8637211  63.4044703  21.8671789
 101.1536968  75.2374788  26.3197603 102.0783515  75.0317649  26.1822055
 100.9852271  74.9891189  27.2286945  94.1108531  61.4501347  30.5416291
  93.7705351  60.6509160  30.9436971  93.4047537  61.7503058  29.9693124
  94.7625003  58.5350660  28.9943614  95.5851072  58.0611138  28.8722504
  95.0063066  59.3141143  29.4942300  93.4033237  61.5638918  19.2906516
  94.1241600  61.9420171  18.7870232  92.7798541  62.2827795  19.3941494
  97.5464360  62.2684067  20.2264848  97.7627975  63.1508705  19.9253676
  97.0658427  61.8770280  19.4970490  92.2863582  65.2269780  26.8035592
  92.1408162  65.5410083  27.6959874  91.8088785  65.8454681  26.2506491
  94.1459964  62.2172328  26.8516482  94.1321533  61.3213422  26.5148780
  94.8632393  62.2242992  27.4854768  95.9986095  62.6509668  28.8969609
  95.7403873  63.5726739  28.8953940  95.4671136  62.2540103  29.5870074
  86.7609244  67.7675125  29.7423254  86.2162712  68.5434933  29.8743528
  87.6388594  68.1145929  29.5842375  93.5496860  61.0986709  22.1204052
  93.6712772  60.1703355  22.3194940  93.2598903  61.1125395  21.2082368
  96.4188051  58.7841619  25.2570772  96.4409748  58.8480952  24.3022752
  96.8356110  57.9446128  25.4511278  87.5475266  66.8945021  32.6353411
  86.8057002  67.0427656  33.2218041  87.2268010  67.1553287  31.7720160
  95.4918928  76.4360999  32.4333801  95.8006055  76.1910146  33.3056500
  96.2894410  76.6407638  31.9452671  95.5139540  78.5898909  24.6639177
  95.0744531  78.0975288  25.3572034  96.2647657  78.0471876  24.4231252
  87.9931879  74.7810450  24.6663805  88.8189899  74.4814222  24.2862449
  87.6425931  74.0118072  25.1153594  92.9613412  74.1336918  26.7361479
  92.3393422  73.4707623  26.4363707  93.6318279  74.1598050  26.0535127
  86.1940484  72.6996776  25.6252739  85.3572393  72.2718950  25.4436740
  86.1664130  72.8929219  26.5623530  93.0337940  62.6118706  36.3293985
  93.0826095  63.4880829  35.9471754  93.5760454  62.0696099  35.7565628
 103.5192786  73.1559829  35.6095122 102.7288329  73.1383968  35.0699621
 103.2826140  73.6948123  36.3644158 103.6390661  70.0052296  32.9227850
 103.6888666  69.8402303  33.8643373 103.5304584  69.1379555  32.5325731
  92.5226919  72.6840841  20.2119939  92.6715040  73.3676306  19.5586612
  93.3293363  72.6645931  20.7269395 100.9294423  65.9883224  34.2387157
 101.8304286  65.8489688  33.9471155 101.0042398  66.1537678  35.1785335
  95.2637228  63.3650078  33.0840343  94.3940538  63.6583644  32.8122932
  95.4996709  63.9490523  33.8047607 103.3896046  67.5481852  31.6349930
 103.8650167  67.7409498  30.8268781 102.4661611  67.6041038  31.3893314
  90.2779552  68.7106019  21.2181008  90.0325594  67.8068349  21.4161218
  90.4475467  68.7123169  20.2760486  97.9676262  59.5829695  30.6005764
  98.4858206  60.3190722  30.2752252  97.6131395  59.8893689  31.4352523
  89.5475200  64.4434376  18.7167170  88.8544445  64.5178731  18.0607206
  89.3026952  63.6794720  19.2388687  98.2188856  56.0029978  26.1206660
  98.4990610  55.3353167  26.7467087  99.0039463  56.1959073  25.6081324
 102.0897715  64.4247612  29.8678236 103.0415138  64.5245709  29.8890460
 101.9201165  63.6325880  30.3776320 100.1112094  61.5103195  30.0537636
  99.5162026  61.7908208  29.3584125  99.8261791  61.9997096  30.8254378
  96.4069123  66.5149784  15.0247739  97.3528228  66.3855993  15.0936157
  96.0283368  65.7764446  15.5017167 102.3791008  58.1805790  24.9874631
 102.1815829  57.8720879  25.8717963 102.9890713  58.9067429  25.1172561
  96.2907816  70.5667531  36.4848396  97.2110825  70.7446130  36.6788443
  96.2557399  69.6223576  36.3328095  94.5912040  64.4399761  14.9602624
  93.6843496  64.1432874  15.0365338  94.8688021  64.1429579  14.0936911
  85.5089981  65.7606124  25.4101671  85.1892765  64.9071432  25.1176045
  84.9623409  65.9754702  26.1659638  89.2869888  68.4768565  29.1271177
  89.5055898  69.4085673  29.1459211  89.6995662  68.1176540  29.9125981
  96.2074106  58.9836651  21.1146866  95.3974835  58.6383736  21.4902112
  96.8958523  58.6744194  21.7034477  98.1364655  58.0614697  22.7371162
  98.6895693  58.4810151  23.3961185  98.3734741  57.1350445  22.7794118
  94.1597754  64.0501771  38.5173926  94.0594481  64.9996128  38.4486017
  93.9419296  63.7220010  37.6449996  93.3610825  61.2986696  15.1014604
  94.2229989  61.6241594  15.3610421  93.5461169  60.5118192  14.5887669
  85.3778241  69.3809036  27.3794792  84.6841712  68.9662989  26.8664747
  86.1251232  69.4229572  26.7828211 101.5143462  60.1715223  22.2449827
 100.9342131  60.8300027  21.8627879 101.2479394  59.3492567  21.8337244
  99.9647028  59.5720280  24.4471147 100.4646806  59.6836815  23.6385466
 100.6082636  59.2681333  25.0871955  94.0229024  67.4798910  37.3338988
  93.5396105  68.2799270  37.5402877  94.1089963  67.4906855  36.3806432
  87.2914983  69.3127290  25.2560807  87.2685672  69.4114977  24.3042690
  87.6015620  70.1592440  25.5777973  89.9502361  71.3703445  29.3707422
  90.9045615  71.3387387  29.3037353  89.7514885  70.9094068  30.1857648
  90.5401743  69.9404561  31.9378219  91.3594632  70.4348639  31.9613057
  90.8138551  69.0236529  31.9095787 100.2968340  62.3315313  21.3006175
  99.4094195  62.6164964  21.0826370 100.7122329  62.1709076  20.4533452
 103.6482876  62.3561834  25.0160514 104.4243266  62.8458286  25.2885131
 102.9231010  62.7819888  25.4732384  88.3052590  76.9123064  26.3877620
  88.1707058  76.1523465  25.8215618  87.8884652  77.6363964  25.9206408
 100.2709363  67.8469849  21.5156465 100.2144565  68.3038400  20.6764097
 100.8237706  67.0860533  21.3379308 104.0814169  63.6359581  22.3406585
 103.8251104  63.2356216  23.1714792 103.4567037  64.3503375  22.2156724
  91.4621716  77.8092381  26.5996062  91.3454100  78.7537814  26.4974753
  90.6414162  77.5065943  26.9881861  98.3190050  71.3423542  38.1362557
  99.1881209  71.5164194  37.7749192  97.8396801  72.1617959  38.0138286
  94.3140268  58.5382739  18.3894313  94.3018938  59.4824579  18.5462584
  95.2063690  58.3552884  18.0953774  92.4876230  78.4620643  29.8151991
  93.3903477  78.4944253  30.1318486  92.2613600  77.5321094  29.8298326
  94.2429832  77.2151629  26.4762069  93.2925463  77.2153491  26.3626442
  94.5462318  76.4684364  25.9598104  98.1292388  55.1325516  22.6440249
  97.3624783  54.5784002  22.7896932  98.5403093  55.2047384  23.5054401
 103.9899276  86.9411560  32.3834746 103.6989142  87.8457190  32.2681412
 104.6256260  86.9828087  33.0978815  99.7610454  82.7220045  26.2465033
  99.8902835  82.9754524  27.1604445  99.0807905  83.3147753  25.9269688
 103.4134907  80.5270262  35.3650151 102.7833567  81.2086543  35.5985548
 103.3070995  80.4153344  34.4203289  98.7079879  80.1942058  26.2916075
  97.9178933  80.4499587  25.8156186  99.1991126  81.0090396  26.3968116
  96.9917582  80.4472549  28.7231066  97.2425621  81.3319559  28.9888642
  97.5277131  80.2677150  27.9506158 102.6915649  74.8291028  37.7275402
 102.2982595  74.2757227  38.4023046 103.5081790  75.1401607  38.1181920
 100.7524948  81.4305275  33.5973888 100.6378464  80.5290532  33.8980987
  99.8969466  81.6768971  33.2458705 104.7865186  73.8316852  22.6666792
 104.1329599  73.5165869  22.0423406 104.7445661  73.2092592  23.3926615
 103.0555953  78.0172778  28.5805483 103.6955333  77.8761537  27.8828446
 102.2233484  77.7307291  28.2044085 101.5309495  79.4010860  30.5277294
 102.2032549  79.1928222  29.8789943 100.7039282  79.2032946  30.0882527
 101.9336992  82.6753463  31.2879732 101.7956790  81.9433702  31.8891271
 102.8441916  82.5862363  31.0063919 103.2748227  79.3738640  32.5959051
 102.7385584  78.9229379  33.2480647 102.6864936  79.5084549  31.8529515
  94.2052626  83.6204451  25.2527021  94.8923666  83.3066181  24.6648037
  94.0500755  84.5245816  24.9794273  99.0087348  78.5094648  29.6812045
  98.9245537  77.9020317  28.9462455  98.1870055  79.0003666  29.6821541
  93.7820602  81.7005045  27.5244489  93.8204702  81.1668635  28.3181607
  93.2760895  81.1740250  26.9055466 101.1611365  76.5469585  31.0207031
 101.2252691  77.4084416  30.6084429 101.0978485  75.9343587  30.2879389
 100.6363637  78.6192718  34.6680065 101.2635676  78.2369795  35.2817589
  99.7791556  78.4006920  35.0335758 100.9423427  78.5025143  26.5825969
 100.2210013  79.1161111  26.4433442 101.7316683  79.0382908  26.5042615
 103.7449740  75.8379570  32.8566620 104.2684142  76.0841866  33.6192930
 103.5262074  76.6699605  32.4369758 104.9502285  76.7793265  30.5416291
 104.6099106  75.9801078  30.9436971 104.2441292  77.0794976  29.9693124
 103.1257336  80.5561698  26.8035592 102.9801917  80.8702001  27.6959874
 102.6482540  81.1746598  26.2506491  97.6002998  83.0967042  29.7423254
  97.0556466  83.8726850  29.8743528  98.4782348  83.4437847  29.5842375
  98.3869020  82.2236939  32.6353411  97.6450756  82.3719574  33.2218041
  98.0661764  82.4845204  31.7720160 103.8731694  77.9410624  36.3293985
 103.9219850  78.8172746  35.9471754 104.4154209  77.3988017  35.7565628
  96.3483735  81.0898042  25.4101671  96.0286520  80.2363350  25.1176045
  95.8017164  81.3046620  26.1659638 100.1263643  83.8060483  29.1271177
 100.3449653  84.7377591  29.1459211 100.5389417  83.4468457  29.9125981
 104.9991508  79.3793689  38.5173926 104.8988235  80.3288046  38.4486017
 104.7813050  79.0511928  37.6449996  96.2171995  84.7100953  27.3794792
  95.5235467  84.2954906  26.8664747  96.9644986  84.7521490  26.7828211
 104.8622778  82.8090828  37.3338988 104.3789860  83.6091188  37.5402877
 104.9483717  82.8198772  36.3806432 100.7896116  86.6995362  29.3707422
 101.7439369  86.6679305  29.3037353 100.5908639  86.2385986  30.1857648
 101.3795498  85.2696478  31.9378219 102.1988387  85.7640557  31.9613057
 101.6532306  84.3528446  31.9095787  96.6330412  79.6034612  32.6370416
  97.2789276  79.0933566  33.1257642  96.4247563  80.3403294  33.2113842
 100.9727903  76.7502229  36.7345431 101.8359365  76.3939034  36.9448755
 100.3993314  76.4116124  37.4220835  60.6324259   2.6306011  19.1080053
  60.3414125   3.5351642  18.9926719  61.2681244   2.6722539  19.8224122
  65.5914144   2.3167427  16.1029846  65.2914867   3.2192466  15.9945653
  65.2465204   2.0499610  16.9550999  63.1325275   2.7725793  17.9227373
  63.1969708   3.2346200  18.7585545  62.4236199   2.1423158  18.0509683
  64.4741769   5.0617467  21.9206696  64.0305624   4.2753845  21.6027600
  65.1358983   5.2496617  21.2550587  59.2328891   6.5913268  16.4467374
  59.7836316   6.4630332  15.6744368  58.3940367   6.8908157  16.0962267
  66.5723008   5.3420267  19.9488097  66.5541483   6.1629148  19.4568366
  67.4942928   5.2174342  20.1738238  63.0296062   2.8564396  20.7911605
  63.5624398   2.0952684  20.5610913  62.5010143   2.5638048  21.5335760
  67.3941815   5.3526280  10.5330366  67.6864789   5.9131337   9.8142732
  67.9040435   5.6454841  11.2883525  65.2936085   5.3887756  15.7698150
  65.3473107   5.9578692  16.5375866  64.4250866   5.5589641  15.4052187
  63.0512517   3.5798682  15.0983619  62.9123602   3.2117466  15.9709557
  62.2627113   4.0946321  14.9267577  69.1931055   5.0135227  20.4215297
  69.1343601   4.3294448  19.7545880  69.5950573   5.7554217  19.9695923
  58.2121754  11.8297141  13.2149016  58.4518352  12.4615665  13.8928034
  57.3690950  11.4785181  13.5014375  62.7249616   7.6376264  15.6190520
  62.6519787   8.4431235  16.1309824  62.2827009   7.8368230  14.7938541
  65.1848299   7.5363098  17.7748679  65.8976271   8.1710563  17.7024580
  64.6938328   7.6326964  16.9588680  60.2360213   5.2857541  18.5954249
  60.9369672   5.9194024  18.7483644  59.7655328   5.6272273  17.8349889
  64.9968673   7.8761842  10.5234970  65.1791067   7.0583498  10.9862722
  65.8201659   8.0929534  10.0859860  55.8327931   4.8193896  15.5285352
  56.4181368   4.0737584  15.6613256  55.6352769   5.1297853  16.4122016
  62.8271855   9.8888887  17.1430453  63.3790163  10.0520509  17.9079538
  63.1678048  10.4793325  16.4710478  67.6782729   4.7150145  22.9979107
  68.2222633   5.3280103  22.5034062  67.0969574   5.2729723  23.5146120
  65.9640242   7.8370863  14.1294135  65.8391381   7.0360603  13.6205080
  66.6219333   8.3317056  13.6408105  68.0275150   5.6379883  15.7573685
  67.0805486   5.5185234  15.6852012  68.3757923   4.7502381  15.8399947
  65.0321584   5.4332599  11.9578037  64.8846546   4.5049306  12.1385607
  65.8575077   5.4552690  11.4735113  68.6355705   6.2561158  13.0442910
  69.5602253   6.0504019  12.9067361  68.4671009   6.0077559  13.9532252
  62.9737666   7.4547369  19.1579107  63.2824792   7.2096516  20.0301807
  63.7713148   7.6594007  18.6697977  62.9958278   9.6085278  11.3884484
  62.5563268   9.1161657  12.0817340  63.7466395   9.0658246  11.1476559
  71.0011523   4.1746199  22.3340429  70.2107067   4.1570338  21.7944928
  70.7644878   4.7134492  23.0889465  57.4321099   2.3889814  16.0952728
  58.3864353   2.3573756  16.0282660  57.2333623   1.9280438  16.9102954
  58.0220481   0.9590930  18.6623526  58.8413370   1.4535009  18.6858363
  58.2957289   0.0422898  18.6341094  58.9440454   8.8278751  13.3241369
  58.8272838   9.7724183  13.2220059  58.1232900   8.5252312  13.7127168
  65.8008788   2.3609911  24.8607864  66.6699947   2.5350564  24.4994499
  65.3215539   3.1804328  24.7383593  59.9694968   9.4807013  16.5397297
  60.8722215   9.5130623  16.8563792  59.7432338   8.5507463  16.5543633
  61.7248570   8.2337999  13.2007376  60.7744201   8.2339861  13.0871748
  62.0281056   7.4870734  12.6843411  77.4601263  14.0698537  14.2653138
  78.0979673  13.9505285  13.5616478  77.3422106  15.0179381  14.3241090
  74.2690970  14.0225966  14.2014663  73.9309481  13.9067030  13.3135198
  75.1380738  13.6217131  14.1815669  70.1277785  15.8761442  10.1911554
  69.5642650  15.7851379   9.4227842  70.0130180  15.0561346  10.6714047
  74.7510753  15.1760817  20.1600869  74.7399393  14.7813616  19.2881372
  74.9131392  14.4426890  20.7534640  67.6742217  17.3712634  13.0295774
  68.4663509  17.0303458  12.6142074  67.9138867  17.4807609  13.9497928
  69.6332971  16.6321547   5.9013153  70.4063847  16.0850534   5.7626029
  69.9858370  17.4965796   6.1127615  71.4718014  17.9597929  19.1080053
  71.1807880  18.8643560  18.9926719  72.1074998  18.0014457  19.8224122
  72.3974221  15.3374778  15.6981412  72.9937793  15.1130800  14.9838375
  72.4549192  14.5959523  16.3006860  74.0327079  14.1552466   9.4402667
  73.6685286  13.6283087  10.1515589  74.8894195  13.7650935   9.2669153
  76.4307899  17.6459345  16.1029846  76.1308622  18.5484383  15.9945653
  76.0858958  17.3791528  16.9550999  69.8820380  14.0973141  12.1366551
  68.9570877  13.9649356  12.3444242  70.1304794  14.8767361  12.6336493
  67.2429191  13.7406415  12.9710340  67.3721573  13.9940894  13.8849751
  66.5626643  14.3334123  12.6514995  71.4128679  24.4103665   9.0700814
  71.3352708  25.3611490   9.1489294  70.8090322  24.0649537   9.7275740
  73.9045908  11.5831530  21.7262181  73.1279242  12.1425451  21.7165045
  74.5436471  12.0688313  22.2477051  72.1592281  14.3916984  21.2880148
  72.9006965  14.9302028  21.0114971  71.4529266  15.0183272  21.4451700
  77.6347620  16.5346124  19.8852309  78.0430976  16.0928535  19.1406942
  76.9124882  15.9598752  20.1386502  73.9878690  11.4718731  17.2585866
  74.8339886  11.8958145  17.4020515  73.9277328  10.8152355  17.9524429
  77.9576435  17.0947315  13.6404598  77.3285297  17.2593029  12.9380666
  77.5702097  17.5088924  14.4115562  77.1378136   9.1323099  18.9167040
  76.8939068   9.8865160  18.3801316  77.4138066   9.5108447  19.7514287
  79.0916599  15.6761712  17.5944305  79.3033494  16.3193472  16.9178687
  79.0446347  14.8424028  17.1266236  76.6942827   8.2879532  14.4980878
  75.8327307   8.5860786  14.7897615  76.7205262   8.5049931  13.5661910
  73.5104397  16.8321723  10.9054683  73.9742742  17.1109426  10.1159306
  73.2461195  15.9305167  10.7227774  70.4028478  16.3793204  13.8434447
  70.9729835  16.8080473  13.2051931  70.9936590  16.0975789  14.5418632
  72.4473283  12.9544875   7.7144248  73.1497326  13.4065919   8.1818175
  72.1153911  12.3128694   8.3424142  70.8953644  11.5456632  22.0895458
  70.2652305  12.2272913  22.3230855  70.7889732  11.4339714  21.1448596
  66.1898617  11.2128428  13.0161382  65.3997671  11.4685956  12.5401493
  66.6809864  12.0276766  13.1213423  80.2062426  18.5533667  15.7666663
  81.0279870  18.1513854  15.4849344  80.2024829  18.4501901  16.7182779
  68.1413362  11.5773007   9.9744859  67.3444526  11.6891701  10.4928354
  67.9138954  11.9159659   9.1085749  73.9719030  18.1017710  17.9227373
  74.0363462  18.5638118  18.7585545  73.2629954  17.4715075  18.0509683
  64.4736320  11.4658918  15.4476373  64.7244358  12.3505928  15.7133949
  65.0095868  11.2863520  14.6751465  73.6867048  19.7685818   7.7906354
  73.5512722  20.6137354   8.2191201  74.2276860  19.9705096   7.0272287
  70.1734387   5.8477398  24.4520709  69.7801333   5.2943596  25.1268353
  70.9900528   6.1587976  24.8427226  67.1396445  17.2861256   8.3634279
  67.6520966  18.0804506   8.5139843  67.7919158  16.5887546   8.2967880
  68.9491330  20.4027012  10.4457032  69.1257958  21.3244977  10.2578016
  69.7448163  20.0885431  10.8751412  73.0902348   7.2635277  22.0440965
  73.8312062   7.8642430  21.9645428  73.3220271   6.5212915  21.4859008
  68.2343686  12.4491644  20.3219195  68.1197201  11.5476901  20.6226294
  67.3788204  12.6955341  19.9704012  75.3135524  20.3909384  21.9206696
  74.8699378  19.6045763  21.6027600  75.9752738  20.5788535  21.2550587
  70.0722645  21.9205186  16.4467374  70.6230070  21.7922249  15.6744368
  69.2334121  22.2200075  16.0962267  77.4116762  20.6712184  19.9488097
  77.3935237  21.4921065  19.4568366  78.3336682  20.5466260  20.1738238
  73.8689816  18.1856314  20.7911605  74.4018153  17.4244602  20.5610913
  73.3403897  17.8929966  21.5335760  65.1045362  15.6149910   9.1393849
  65.9420584  16.0246919   8.9227557  65.2823629  14.6749352   9.1094043
  76.1156052   5.6621035  14.2854480  75.6120847   5.6251170  13.4722286
  76.4086658   6.5713778  14.3451137  72.3598937   5.7459765  13.2920662
  73.2251934   5.5502573  12.9326552  72.4276446   5.5170116  14.2190019
  75.2342529  17.3142306   8.3030417  74.7063890  16.5795066   7.9903655
  74.7330032  18.0916983   8.0570386  80.2135375  15.5091327  13.4197464
  79.5559049  16.1990588  13.5077592  81.0175774  15.8987759  13.7631450
  69.9661256   7.9761973  10.6637029  70.5405008   7.7537154   9.9310222
  70.5532239   8.0450667  11.4165630  76.2863208  23.8420024   4.2262077
  75.6124907  24.1451721   4.8347034  76.6729030  24.6449104   3.8767534
  75.5021665  11.3385155  13.7159746  74.5844226  11.5600102  13.5581434
  75.9181808  11.4131465  12.8571453  79.7902630  18.8441701   9.5980548
  79.3364957  18.0032611   9.6545739  79.1596597  19.4803099   9.9355328
  78.2335569  20.6818198  10.5330366  78.5258544  21.2423255   9.8142732
  78.7434190  20.9746759  11.2883525  65.1271533  12.9540626   9.8104583
  64.9295933  12.3609986   9.0855649  64.5718197  12.6492836  10.5280522
  73.1068257  12.8463732  11.9299176  73.1616866  11.8937568  11.8541652
  72.2959459  13.0023171  12.4140474  71.0460616  11.4640792   9.6889555
  70.2328482  11.7634962  10.0954747  71.5419611  11.0696481  10.4064037
  73.1969194  21.4598549  11.6223819  73.1545373  21.6859395  10.6932351
  74.1131893  21.2261923  11.7709621  76.6434828  11.9282616  18.5204449
  76.9984216  12.1554089  19.3798914  77.2906959  12.2600993  17.8981704
  70.5374691   9.0359147  15.3050790  71.1774071   8.8947906  14.6073753
  69.7052222   8.7493661  14.9289392  82.4001945  17.1177579  14.2365049
  82.8338451  17.0252868  15.0848103  83.1133525  17.0935080  13.5985065
  71.3134995  18.3361578  11.4185782  72.1075594  17.8411898  11.2168357
  70.6026688  17.8079441  11.0553488  76.1329840  20.7179673  15.7698150
  76.1866862  21.2870610  16.5375866  75.2644621  20.8881558  15.4052187
  67.6217759  12.4804659   7.4945535  66.6915347  12.4189115   7.7115497
  67.7175231  11.9580612   6.6982176  67.5403308   9.0059472  10.0823776
  67.8010125   9.9204806   9.9732937  68.3620480   8.5383915  10.2320389
  69.0128233  10.4197229  17.2522601  69.6851286  10.2114592  16.6035250
  68.1858020  10.2219315  16.8127833  83.2617494  17.1601280  16.7697935
  83.4553384  18.0647090  17.0157209  83.1618112  16.7008699  17.6036520
  74.9153805   7.0459170  19.2688262  74.2681720   7.7449120  19.1752738
  75.6854820   7.4795314  19.6364510  78.3232603  17.3108023  22.3438815
  78.1718109  17.0818574  21.4268899  78.3137282  18.2678624  22.3570160
  75.0917939  14.8839935  17.3285082  76.0209999  15.0351095  17.1554049
  74.6708969  14.9723956  16.4733728  73.8906271  18.9090600  15.0983619
  73.7517357  18.5409384  15.9709557  73.1020867  19.4238239  14.9267577
  74.4854423  24.0099696   6.4409156  74.6606179  23.5387739   7.2554778
  73.7987211  24.6365462   6.6690416  75.4411486  18.2872202  12.4872457
  75.1061319  18.2472972  13.3830107  74.9415432  17.6216918  12.0142867
  69.4155730  13.6939832  18.0125038  69.2775528  12.9620071  18.6136577
  70.3260654  13.6048733  17.7309226  72.0438031  13.4059792  17.5008718
  72.7537649  12.7652984  17.4595336  72.0007339  13.6572687  18.4234899
  80.0324810  20.3427145  20.4215297  79.9737356  19.6586365  19.7545880
  80.4344328  21.0846135  19.9695923  70.7566965  10.3925010  19.3204357
  70.2204322   9.9415748  19.9725954  70.1683673  10.5270918  18.5774822
  69.0515508  27.1589059  13.2149016  69.2912107  27.7907583  13.8928034
  68.2084705  26.8077099  13.5014375  80.0342217  18.3066729  18.6529277
  79.1468996  17.9692651  18.7755676  80.6040768  17.5749760  18.8898042
  61.6871364  14.6390821  11.9772328  62.3742404  14.3252551  11.3893343
  61.5319493  15.5432185  11.7039580  66.4906086   9.5281017  16.4057352
  66.4064275   8.9206687  15.6707762  65.6688793  10.0190036  16.4066848
  73.5643370  22.9668181  15.6190520  73.4913542  23.7723153  16.1309824
  73.1220763  23.1660147  14.7938541  73.3533150  22.2039951   9.1293341
  72.5700672  22.7461632   9.2231566  74.0525895  22.7213931   9.5287583
  76.0242054  22.8655015  17.7748679  76.7370026  23.5002480  17.7024580
  75.5332082  22.9618881  16.9588680  73.2464769  10.1551964  11.4999231
  72.8762556   9.6023004  12.1880137  73.7423861   9.5510097  10.9474231
  71.0753967  20.6149459  18.5954249  71.7763427  21.2485942  18.7483644
  70.6049082  20.9564190  17.8349889  78.8755253  13.1694066  16.4206800
  78.2226703  13.4169974  15.7659253  79.2535633  12.3558205  16.0869277
  75.8362427  23.2053760  10.5234970  76.0184822  22.3875415  10.9862722
  76.6595413  23.4221452  10.0859860  76.1704593  22.1321945   7.7850019
  76.6992359  21.6214399   7.1720181  76.4332812  21.8164475   8.6495552
  74.9242826  13.9113877  22.9072837  74.2483463  13.8108007  23.5775212
  75.7470460  13.7553091  23.3708834  66.6721685  20.1485814  15.5285352
  67.2575122  19.4029502  15.6613256  66.4746524  20.4589771  16.4122016
  69.5260341  23.1837061  10.5447794  68.8570716  23.6683189  10.0611835
  69.3873210  23.4306282  11.4591173  61.2639340  12.7191414  14.2489795
  61.3023440  12.1855005  15.0426913  60.7579633  12.1926620  13.6300772
  73.6665609  25.2180805  17.1430453  74.2183917  25.3812426  17.9079538
  74.0071803  25.8085243  16.4710478  68.6430102   7.5655955  17.7452338
  68.7071429   8.4270786  17.3329735  68.5797223   6.9529956  17.0124696
  68.1182375   9.6379087  21.3925372  68.7454414   9.2556164  22.0062896
  67.2610294   9.4193289  21.7581064  78.5176483  20.0442062  22.9979107
  79.0616387  20.6572021  22.5034062  77.9363328  20.6021641  23.5146120
  76.8033996  23.1662780  14.1294135  76.6785136  22.3652520  13.6205080
  77.4613088  23.6608974  13.6408105  68.4242165   9.5211513  13.3071275
  67.7028750  10.1347481  13.1678749  69.2135420  10.0569278  13.2287921
  78.8668905  20.9671800  15.7573685  77.9199240  20.8477152  15.6852012
  79.2151678  20.0794298  15.8399947  71.2268478   6.8565939  19.5811927
  71.7502880   7.1028236  20.3438236  71.0080811   7.6885974  19.1615064
  75.8715338  20.7624517  11.9578037  75.7240301  19.8341224  12.1385607
  76.6968832  20.7844607  11.4735113  69.7377582   9.4142584   7.8158529
  70.0773655   9.9428505   7.0937138  70.1849703   9.7522990   8.5917096
  79.4749460  21.5853075  13.0442910  80.3996007  21.3795937  12.9067361
  79.3064763  21.3369477  13.9532252  72.4321023   7.7979634  17.2661597
  72.0917844   6.9987448  17.6682277  71.7260030   8.0981345  16.6938431
  70.6076074  11.5748068  13.5280899  70.4620655  11.8888371  14.4205181
  70.1301277  12.1932968  12.9751798  72.4672457   8.5650616  13.5761789
  72.4534025   7.6691709  13.2394087  73.1844885   8.5721279  14.2100075
  74.3198587   8.9987956  15.6214916  74.0616365   9.9205026  15.6199247
  73.7883628   8.6018390  16.3115380  79.2644776  22.1038743   8.4005002
  79.4381654  21.5385165   7.6478854  79.7573667  22.9039638   8.2184491
  65.0821736  14.1153412  16.4668560  64.5375204  14.8913220  16.5988835
  65.9601086  14.4624216  16.3087682  65.8687758  13.2423308  19.3598717
  65.1269494  13.3905944  19.9463348  65.5480502  13.5031574  18.4965467
  73.8131420  22.7839286  19.1579107  74.1218547  22.5388433  20.0301807
  74.6106903  22.9885925  18.6697977  73.8352033  24.9377196  11.3884484
  73.3957023  24.4453575  12.0817340  74.5860149  24.3950164  11.1476559
  66.3144372  21.1288737  11.3909112  67.1402391  20.8292509  11.0107755
  65.9638424  20.3596359  11.8398900  71.2825905  20.4815205  13.4606785
  70.6605914  19.8185910  13.1609013  71.9530772  20.5076337  12.7780433
  64.5152977  19.0475063  12.3498045  63.6784885  18.6197238  12.1682047
  64.4876622  19.2407507  13.2868837  71.3550432   8.9596993  23.0539291
  71.4038588   9.8359116  22.6717061  71.8972946   8.4174386  22.4810935
  81.8405278  19.5038116  22.3340429  81.0500822  19.4862255  21.7944928
  81.6038632  20.0426410  23.0889465  81.9603153  16.3530583  19.6473157
  82.0101158  16.1880590  20.5888680  81.8517076  15.4857842  19.2571038
  70.8439412  19.0319128   6.9365246  70.9927532  19.7154593   6.2831919
  71.6505855  19.0124219   7.4514702  79.2506915  12.3361511  20.9632464
  80.1516778  12.1967976  20.6716462  79.3254890  12.5015966  21.9030641
  73.5849721   9.7128366  19.8085650  72.7153030  10.0061932  19.5368239
  73.8209201  10.2968811  20.5292914  83.4621350  18.7727524  19.8915179
  83.1706158  19.1357505  20.7278640  82.8493481  18.0594533  19.7128511
  81.7108538  13.8960139  18.3595237  82.1862660  14.0887785  17.5514088
  80.7874103  13.9519325  18.1138620  68.5992045  15.0584306   7.9426315
  68.3538087  14.1546636   8.1406525  68.7687959  15.0601457   7.0005793
  76.2888754   5.9307982  17.3251070  76.8070698   6.6669009  16.9997559
  75.9343887   6.2371976  18.1597830  74.3434817  21.5267259   4.4076993
  73.7708784  22.1457446   3.9547465  74.9167611  22.0766621   4.9416915
  80.4110207  10.7725899  16.5923542  81.3627630  10.8723997  16.6135766
  80.2413657   9.9804168  17.1021627  78.4324586   7.8581482  16.7782943
  77.8374519   8.1386495  16.0829432  78.1474283   8.3475383  17.5499684
  82.8898285  13.9932019  15.7065842  82.8574605  13.0548019  15.8925526
  83.4998908  14.0716055  14.9731667  74.6120308  16.9145818  23.2093703
  75.5323318  17.0924417  23.4033749  74.5769891  15.9701863  23.0573402
  63.8302473  12.1084411  12.1346977  63.5105257  11.2549720  11.8421351
  63.2835901  12.3232990  12.8904945  67.6082381  14.8246852  15.8516484
  67.8268390  15.7563960  15.8704518  68.0208155  14.4654827  16.6371288
  72.4810246  10.3980058  25.2419233  72.3806973  11.3474415  25.1731324
  72.2631788  10.0698297  24.3695303  63.6990733  15.7287323  14.1040099
  63.0054205  15.3141276  13.5910053  64.4463724  15.7707859  13.5073518
  72.3441516  13.8277197  24.0584295  71.8608598  14.6277557  24.2648184
  72.4302455  13.8385142  23.1051739  65.6127476  15.6605577  11.9806114
  65.5898164  15.7593264  11.0287997  65.9228112  16.5070728  12.3023280
  68.2714854  17.7181732  16.0952728  69.2258107  17.6865674  16.0282660
  68.0727377  17.2572356  16.9102954  68.8614236  16.2882848  18.6623526
  69.6807125  16.7826926  18.6858363  69.1351043  15.3714816  18.6341094
  66.6265082  23.2601351  13.1122926  66.4919550  22.5001752  12.5460924
  66.2097145  23.9842251  12.6451715  69.7834208  24.1570668  13.3241369
  69.6666592  25.1016101  13.2220059  68.9626654  23.8544230  13.7127168
  64.1149150  10.6220982  19.3615723  64.7608014  10.1119936  19.8502948
  63.9066301  11.3589663  19.9359148  76.6402542  17.6901829  24.8607864
  77.5093702  17.8642481  24.4994499  76.1609294  18.5096246  24.7383593
  70.8088722  24.8098930  16.5397297  71.7115969  24.8422540  16.8563792
  70.5826092  23.8799381  16.5543633  72.5642324  23.5629917  13.2007376
  71.6137955  23.5631778  13.0871748  72.8674811  22.8162651  12.6843411
  68.4546641   7.7688599  23.4590737  69.3178102   7.4125404  23.6694062
  67.8812052   7.4302494  24.1466142  88.2995018  29.3990455  14.2653138
  88.9373428  29.2797202  13.5616478  88.1815861  30.3471299  14.3241090
  85.1084724  29.3517883  14.2014663  84.7703236  29.2358948  13.3135198
  85.9774492  28.9509048  14.1815669  80.9671540  31.2053360  10.1911554
  80.4036405  31.1143297   9.4227842  80.8523935  30.3853264  10.6714047
  85.5904507  30.5052735  20.1600869  85.5793148  30.1105533  19.2881372
  85.7525147  29.7718808  20.7534640  78.5135972  32.7004551  13.0295774
  79.3057264  32.3595376  12.6142074  78.7532622  32.8099526  13.9497928
  80.4726726  31.9613464   5.9013153  81.2457602  31.4142452   5.7626029
  80.8252125  32.8257714   6.1127615  82.3111768  33.2889847  19.1080053
  82.0201634  34.1935478  18.9926719  82.9468753  33.3306374  19.8224122
  83.2367975  30.6666695  15.6981412  83.8331547  30.4422718  14.9838375
  83.2942947  29.9251441  16.3006860  84.8720833  29.4844384   9.4402667
  84.5079040  28.9575005  10.1515589  85.7287949  29.0942853   9.2669153
  87.2701653  32.9751262  16.1029846  86.9702376  33.8776301  15.9945653
  86.9252713  32.7083445  16.9550999  80.7214135  29.4265059  12.1366551
  79.7964631  29.2941273  12.3444242  80.9698548  30.2059278  12.6336493
  78.0822946  29.0698333  12.9710340  78.2115327  29.3232812  13.8849751
  77.4020397  29.6626041  12.6514995  82.2522433  39.7395583   9.0700814
  82.1746463  40.6903408   9.1489294  81.6484077  39.3941455   9.7275740
  84.7439663  26.9123448  21.7262181  83.9672997  27.4717368  21.7165045
  85.3830226  27.3980231  22.2477051  82.9986035  29.7208901  21.2880148
  83.7400720  30.2593945  21.0114971  82.2923021  30.3475190  21.4451700
  88.4741375  31.8638042  19.8852309  88.8824731  31.4220452  19.1406942
  87.7518636  31.2890669  20.1386502  84.8272445  26.8010649  17.2585866
  85.6733640  27.2250062  17.4020515  84.7671083  26.1444273  17.9524429
  88.7970190  32.4239232  13.6404598  88.1679052  32.5884947  12.9380666
  88.4095852  32.8380842  14.4115562  87.9771890  24.4615017  18.9167040
  87.7332822  25.2157078  18.3801316  88.2531821  24.8400365  19.7514287
  89.9310353  31.0053629  17.5944305  90.1427248  31.6485389  16.9178687
  89.8840101  30.1715946  17.1266236  87.5336582  23.6171450  14.4980878
  86.6721061  23.9152704  14.7897615  87.5599017  23.8341849  13.5661910
  84.3498151  32.1613641  10.9054683  84.8136497  32.4401344  10.1159306
  84.0854949  31.2597085  10.7227774  81.2422232  31.7085122  13.8434447
  81.8123590  32.1372390  13.2051931  81.8330344  31.4267707  14.5418632
  83.2867037  28.2836793   7.7144248  83.9891081  28.7357837   8.1818175
  82.9547666  27.6420612   8.3424142  81.7347399  26.8748550  22.0895458
  81.1046060  27.5564830  22.3230855  81.6283487  26.7631631  21.1448596
  77.0292371  26.5420346  13.0161382  76.2391425  26.7977874  12.5401493
  77.5203619  27.3568683  13.1213423  91.0456181  33.8825585  15.7666663
  91.8673625  33.4805772  15.4849344  91.0418584  33.7793819  16.7182779
  78.9807117  26.9064925   9.9744859  78.1838280  27.0183619  10.4928354
  78.7532709  27.2451577   9.1085749  84.8112784  33.4309628  17.9227373
  84.8757217  33.8930035  18.7585545  84.1023708  32.8006993  18.0509683
  75.3130074  26.7950836  15.4476373  75.5638113  27.6797846  15.7133949
  75.8489623  26.6155438  14.6751465  84.5260802  35.0977736   7.7906354
  84.3906477  35.9429271   8.2191201  85.0670615  35.2997013   7.0272287
  81.0128142  21.1769315  24.4520709  80.6195087  20.6235514  25.1268353
  81.8294282  21.4879894  24.8427226  77.9790199  32.6153174   8.3634279
  78.4914720  33.4096424   8.5139843  78.6312912  31.9179464   8.2967880
  79.7885084  35.7318930  10.4457032  79.9651712  36.6536895  10.2578016
  80.5841918  35.4177349  10.8751412  83.9296103  22.5927195  22.0440965
  84.6705816  23.1934348  21.9645428  84.1614026  21.8504832  21.4859008
  79.0737441  27.7783562  20.3219195  78.9590956  26.8768819  20.6226294
  78.2181958  28.0247259  19.9704012  86.1529278  35.7201302  21.9206696
  85.7093133  34.9337681  21.6027600  86.8146492  35.9080453  21.2550587
  80.9116400  37.2497104  16.4467374  81.4623825  37.1214167  15.6744368
  80.0727876  37.5491993  16.0962267  88.2510517  36.0004102  19.9488097
  88.2328992  36.8212983  19.4568366  89.1730437  35.8758177  20.1738238
  84.7083571  33.5148231  20.7911605  85.2411907  32.7536520  20.5610913
  84.1797652  33.2221883  21.5335760  75.9439116  30.9441828   9.1393849
  76.7814338  31.3538836   8.9227557  76.1217384  30.0041270   9.1094043
  86.9549806  20.9912953  14.2854480  86.4514602  20.9543088  13.4722286
  87.2480413  21.9005695  14.3451137  83.1992692  21.0751682  13.2920662
  84.0645689  20.8794491  12.9326552  83.2670201  20.8462034  14.2190019
  86.0736283  32.6434224   8.3030417  85.5457645  31.9086984   7.9903655
  85.5723786  33.4208900   8.0570386  91.0529129  30.8383244  13.4197464
  90.3952804  31.5282506  13.5077592  91.8569529  31.2279676  13.7631450
  80.8055011  23.3053890  10.6637029  81.3798763  23.0829072   9.9310222
  81.3925993  23.3742585  11.4165630  87.1256962  39.1711941   4.2262077
  86.4518661  39.4743638   4.8347034  87.5122784  39.9741022   3.8767534
  86.3415419  26.6677073  13.7159746  85.4237980  26.8892020  13.5581434
  86.7575563  26.7423383  12.8571453  90.6296384  34.1733619   9.5980548
  90.1758712  33.3324528   9.6545739  89.9990351  34.8095017   9.9355328
  89.0729324  36.0110115  10.5330366  89.3652298  36.5715172   9.8142732
  89.5827944  36.3038676  11.2883525  75.9665287  28.2832543   9.8104583
  75.7689687  27.6901904   9.0855649  75.4111951  27.9784753  10.5280522
  83.9462011  28.1755650  11.9299176  84.0010621  27.2229486  11.8541652
  83.1353213  28.3315089  12.4140474  81.8854371  26.7932709   9.6889555
  81.0722236  27.0926880  10.0954747  82.3813365  26.3988398  10.4064037
  84.0362949  36.7890466  11.6223819  83.9939128  37.0151313  10.6932351
  84.9525648  36.5553841  11.7709621  87.4828583  27.2574534  18.5204449
  87.8377970  27.4846007  19.3798914  88.1300714  27.5892911  17.8981704
  81.3768446  24.3651065  15.3050790  82.0167825  24.2239824  14.6073753
  80.5445976  24.0785578  14.9289392  93.2395699  32.4469497  14.2365049
  93.6732206  32.3544786  15.0848103  93.9527280  32.4226997  13.5985065
  82.1528750  33.6653495  11.4185782  82.9469348  33.1703816  11.2168357
  81.4420442  33.1371359  11.0553488  86.9723594  36.0471591  15.7698150
  87.0260616  36.6162527  16.5375866  86.1038375  36.2173476  15.4052187
  78.4611513  27.8096577   7.4945535  77.5309101  27.7481033   7.7115497
  78.5568985  27.2872530   6.6982176  78.3797062  24.3351390  10.0823776
  78.6403879  25.2496723   9.9732937  79.2014234  23.8675833  10.2320389
  79.8521987  25.7489147  17.2522601  80.5245041  25.5406509  16.6035250
  79.0251774  25.5511233  16.8127833  94.1011249  32.4893197  16.7697935
  94.2947139  33.3939008  17.0157209  94.0011867  32.0300617  17.6036520
  85.7547559  22.3751088  19.2688262  85.1075475  23.0741038  19.1752738
  86.5248575  22.8087232  19.6364510  89.1626357  32.6399940  22.3438815
  89.0111864  32.4110492  21.4268899  89.1531037  33.5970542  22.3570160
  85.9311694  30.2131853  17.3285082  86.8603754  30.3643013  17.1554049
  85.5102724  30.3015874  16.4733728  84.7300026  34.2382517  15.0983619
  84.5911111  33.8701302  15.9709557  83.9414622  34.7530157  14.9267577
  85.3248178  39.3391614   6.4409156  85.4999933  38.8679657   7.2554778
  84.6380966  39.9657380   6.6690416  86.2805241  33.6164120  12.4872457
  85.9455073  33.5764890  13.3830107  85.7809186  32.9508836  12.0142867
  80.2549485  29.0231750  18.0125038  80.1169283  28.2911989  18.6136577
  81.1654408  28.9340650  17.7309226  82.8831785  28.7351709  17.5008718
  83.5931404  28.0944902  17.4595336  82.8401094  28.9864604  18.4234899
  90.8718564  35.6719063  20.4215297  90.8131110  34.9878283  19.7545880
  91.2738082  36.4138053  19.9695923  81.5960719  25.7216927  19.3204357
  81.0598076  25.2707666  19.9725954  81.0077428  25.8562836  18.5774822
  79.8909263  42.4880977  13.2149016  80.1305861  43.1199501  13.8928034
  79.0478459  42.1369017  13.5014375  90.8735971  33.6358647  18.6529277
  89.9862750  33.2984568  18.7755676  91.4434522  32.9041678  18.8898042
  72.5265118  29.9682738  11.9772328  73.2136158  29.6544468  11.3893343
  72.3713247  30.8724103  11.7039580  77.3299841  24.8572935  16.4057352
  77.2458029  24.2498605  15.6707762  76.5082547  25.3481953  16.4066848
  84.4037125  38.2960099  15.6190520  84.3307296  39.1015071  16.1309824
  83.9614518  38.4952065  14.7938541  84.1926904  37.5331869   9.1293341
  83.4094426  38.0753549   9.2231566  84.8919650  38.0505849   9.5287583
  86.8635808  38.1946933  17.7748679  87.5763780  38.8294398  17.7024580
  86.3725837  38.2910799  16.9588680  84.0858523  25.4843882  11.4999231
  83.7156311  24.9314922  12.1880137  84.5817616  24.8802015  10.9474231
  81.9147722  35.9441377  18.5954249  82.6157181  36.5777860  18.7483644
  81.4442837  36.2856108  17.8349889  89.7149008  28.4985984  16.4206800
  89.0620458  28.7461891  15.7659253  90.0929388  27.6850122  16.0869277
  86.6756182  38.5345677  10.5234970  86.8578576  37.7167333  10.9862722
  87.4989168  38.7513369  10.0859860  87.0098347  37.4613862   7.7850019
  87.5386114  36.9506317   7.1720181  87.2726567  37.1456393   8.6495552
  85.7636581  29.2405795  22.9072837  85.0877218  29.1399924  23.5775212
  86.5864215  29.0845009  23.3708834  77.5115440  35.4777732  15.5285352
  78.0968877  34.7321420  15.6613256  77.3140278  35.7881688  16.4122016
  80.3654095  38.5128979  10.5447794  79.6964470  38.9975107  10.0611835
  80.2266965  38.7598199  11.4591173  72.1033095  28.0483332  14.2489795
  72.1417194  27.5146923  15.0426913  71.5973387  27.5218537  13.6300772
  84.5059364  40.5472723  17.1430453  85.0577672  40.7104344  17.9079538
  84.8465557  41.1377160  16.4710478  79.4823857  22.8947872  17.7452338
  79.5465183  23.7562703  17.3329735  79.4190977  22.2821874  17.0124696
  78.9576129  24.9671005  21.3925372  79.5848168  24.5848082  22.0062896
  78.1004048  24.7485207  21.7581064  89.3570238  35.3733980  22.9979107
  89.9010142  35.9863938  22.5034062  88.7757083  35.9313558  23.5146120
  75.7341672  26.7747434   7.3243727  76.0295113  25.8658112   7.2710780
  74.8329708  26.7535173   7.0024729  87.6427751  38.4954698  14.1294135
  87.5178890  37.6944438  13.6205080  88.3006842  38.9900891  13.6408105
  79.2635919  24.8503431  13.3071275  78.5422505  25.4639398  13.1678749
  80.0529175  25.3861195  13.2287921  89.7062659  36.2963718  15.7573685
  88.7592995  36.1769069  15.6852012  90.0545432  35.4086216  15.8399947
  82.0662233  22.1857857  19.5811927  82.5896634  22.4320154  20.3438236
  81.8474566  23.0177892  19.1615064  77.4629514  24.4561532   7.4483052
  77.1342220  23.5758911   7.2658158  77.8168884  24.4009200   8.3359441
  86.7109093  36.0916434  11.9578037  86.5634055  35.1633142  12.1385607
  87.5362586  36.1136525  11.4735113  80.5771337  24.7434501   7.8158529
  80.9167409  25.2720423   7.0937138  81.0243457  25.0814908   8.5917096
  90.3143214  36.9144993  13.0442910  91.2389762  36.7087854  12.9067361
  90.1458518  36.6661394  13.9532252  83.2714778  23.1271552  17.2661597
  82.9311598  22.3279365  17.6682277  82.5653784  23.4273263  16.6938431
  83.9231250  20.2120865  15.7188921  84.7457319  19.7381343  15.5967811
  84.1669313  20.9911348  16.2187607  81.4469828  26.9039985  13.5280899
  81.3014409  27.2180288  14.4205181  80.9695032  27.5224886  12.9751798
  83.3066211  23.8942533  13.5761789  83.2927780  22.9983627  13.2394087
  84.0238639  23.9013197  14.2100075  85.1592342  24.3279873  15.6214916
  84.9010120  25.2496944  15.6199247  84.6277382  23.9310308  16.3115380
  90.1038531  37.4330661   8.4005002  90.2775408  36.8677083   7.6478854
  90.5967422  38.2331555   8.2184491  75.9215490  29.4445330  16.4668560
  75.3768959  30.2205138  16.5988835  76.7994840  29.7916134  16.3087682
  76.7081512  28.5715226  19.3598717  75.9663248  28.7197861  19.9463348
  76.3874257  28.8323491  18.4965467  84.6525175  38.1131204  19.1579107
  84.9612301  37.8680351  20.0301807  85.4500657  38.3177843  18.6697977
  84.6745787  40.2669114  11.3884484  84.2350777  39.7745492  12.0817340
  85.4253904  39.7242081  11.1476559  77.1538126  36.4580655  11.3909112
  77.9796146  36.1584426  11.0107755  76.8032178  35.6888277  11.8398900
  82.1219659  35.8107123  13.4606785  81.4999668  35.1477828  13.1609013
  82.7924526  35.8368255  12.7780433  75.3546731  34.3766981  12.3498045
  74.5178639  33.9489155  12.1682047  75.3270376  34.5699424  13.2868837
  82.1944187  24.2888911  23.0539291  82.2432342  25.1651034  22.6717061
  82.7366701  23.7466304  22.4810935  92.6799032  34.8330034  22.3340429
  91.8894576  34.8154173  21.7944928  92.4432387  35.3718328  23.0889465
  92.7996907  31.6822500  19.6473157  92.8494912  31.5172508  20.5888680
  92.6910831  30.8149759  19.2571038  81.6833166  34.3611046   6.9365246
  81.8321286  35.0446511   6.2831919  82.4899610  34.3416136   7.4514702
  90.0900670  27.6653428  20.9632464  90.9910533  27.5259893  20.6716462
  90.1648644  27.8307883  21.9030641  84.4243475  25.0420283  19.8085650
  83.5546785  25.3353849  19.5368239  84.6602955  25.6260728  20.5292914
  94.3015104  34.1019442  19.8915179  94.0099913  34.4649423  20.7278640
  93.6887235  33.3886450  19.7128511  92.5502292  29.2252057  18.3595237
  93.0256414  29.4179703  17.5514088  91.6267858  29.2811242  18.1138620
  79.4385799  30.3876224   7.9426315  79.1931841  29.4838554   8.1406525
  79.6081714  30.3893374   7.0005793  87.1282509  21.2599900  17.3251070
  87.6464453  21.9960927  16.9997559  86.7737642  21.5663893  18.1597830
  78.7081447  26.1204581   5.4412476  78.0150692  26.1948936   4.7852512
  78.4633198  25.3564925   5.9633993  85.1828572  36.8559177   4.4076993
  84.6102539  37.4749364   3.9547465  85.7561365  37.4058538   4.9416915
  91.2503961  26.1017817  16.5923542  92.2021384  26.2015914  16.6135766
  91.0807412  25.3096085  17.1021627  89.2718341  23.1873400  16.7782943
  88.6768273  23.4678413  16.0829432  88.9868038  23.6767301  17.5499684
  93.7292039  29.3223936  15.7065842  93.6968359  28.3839937  15.8925526
  94.3392663  29.4007973  14.9731667  85.4514063  32.2437735  23.2093703
  86.3717072  32.4216334  23.4033749  85.4163646  31.2993781  23.0573402
  74.6696228  27.4376329  12.1346977  74.3499012  26.5841637  11.8421351
  74.1229656  27.6524907  12.8904945  78.4476135  30.1538770  15.8516484
  78.6662145  31.0855878  15.8704518  78.8601909  29.7946745  16.6371288
  83.3204001  25.7271976  25.2419233  83.2200727  26.6766333  25.1731324
  83.1025543  25.3990215  24.3695303  74.5384488  31.0579241  14.1040099
  73.8447959  30.6433193  13.5910053  75.2857479  31.0999777  13.5073518
  83.1835271  29.1569115  24.0584295  82.7002352  29.9569475  24.2648184
  83.2696210  29.1677060  23.1051739  76.4521230  30.9897494  11.9806114
  76.4291918  31.0885182  11.0287997  76.7621867  31.8362645  12.3023280
  79.1108608  33.0473649  16.0952728  80.0651862  33.0157592  16.0282660
  78.9121132  32.5864273  16.9102954  79.7007990  31.6174765  18.6623526
  80.5200879  32.1118844  18.6858363  79.9744798  30.7006734  18.6341094
  77.4658837  38.5893269  13.1122926  77.3313305  37.8293670  12.5460924
  77.0490899  39.3134169  12.6451715  80.6227963  39.4862586  13.3241369
  80.5060347  40.4308018  13.2220059  79.8020409  39.1836148  13.7127168
  74.9542904  25.9512899  19.3615723  75.6001768  25.4411853  19.8502948
  74.7460056  26.6881581  19.9359148  87.4796297  33.0193747  24.8607864
  88.3487456  33.1934399  24.4994499  87.0003048  33.8388164  24.7383593
  81.6482477  40.1390848  16.5397297  82.5509724  40.1714458  16.8563792
  81.4219847  39.2091299  16.5543633  83.4036079  38.8921834  13.2007376
  82.4531710  38.8923696  13.0871748  83.7068565  38.1454569  12.6843411
  79.2940395  23.0980516  23.4590737  80.1571857  22.7417321  23.6694062
  78.7205806  22.7594411  24.1466142  99.1388772  44.7282373  14.2653138
  99.7767182  44.6089120  13.5616478  99.0209615  45.6763217  14.3241090
  95.9478479  44.6809801  14.2014663  95.6096990  44.5650866  13.3135198
  96.8168247  44.2800966  14.1815669  91.8065294  46.5345277  10.1911554
  91.2430159  46.4435214   9.4227842  91.6917689  45.7145182  10.6714047
  96.4298262  45.8344653  20.1600869  96.4186902  45.4397451  19.2881372
  96.5918901  45.1010725  20.7534640  89.3529726  48.0296469  13.0295774
  90.1451018  47.6887294  12.6142074  89.5926376  48.1391444  13.9497928
  91.3120480  47.2905382   5.9013153  92.0851356  46.7434369   5.7626029
  91.6645879  48.1549631   6.1127615  93.1505523  48.6181764  19.1080053
  92.8595389  49.5227395  18.9926719  93.7862507  48.6598292  19.8224122
  94.0761730  45.9958613  15.6981412  94.6725302  45.7714635  14.9838375
  94.1336701  45.2543358  16.3006860  95.7114588  44.8136301   9.4402667
  95.3472795  44.2866922  10.1515589  96.5681704  44.4234770   9.2669153
  98.1095408  48.3043180  16.1029846  97.8096131  49.2068219  15.9945653
  97.7646467  48.0375363  16.9550999  91.5607889  44.7556977  12.1366551
  90.6358386  44.6233191  12.3444242  91.8092303  45.5351196  12.6336493
  88.9216700  44.3990250  12.9710340  89.0509082  44.6524729  13.8849751
  88.2414152  44.9917958  12.6514995  93.0916188  55.0687500   9.0700814
  93.0140217  56.0195325   9.1489294  92.4877831  54.7233373   9.7275740
  95.5833417  42.2415366  21.7262181  94.8066751  42.8009286  21.7165045
  96.2223980  42.7272149  22.2477051  93.8379790  45.0500819  21.2880148
  94.5794474  45.5885863  21.0114971  93.1316775  45.6767108  21.4451700
  99.3135129  47.1929960  19.8852309  99.7218485  46.7512370  19.1406942
  98.5912391  46.6182587  20.1386502  95.6666199  42.1302566  17.2585866
  96.5127395  42.5541980  17.4020515  95.6064837  41.4736191  17.9524429
  99.6363944  47.7531150  13.6404598  99.0072806  47.9176864  12.9380666
  99.2489606  48.1672760  14.4115562  98.8165645  39.7906935  18.9167040
  98.5726577  40.5448995  18.3801316  99.0925575  40.1692282  19.7514287
 100.7704108  46.3345547  17.5944305 100.9821003  46.9777307  16.9178687
 100.7233856  45.5007864  17.1266236  98.3730336  38.9463368  14.4980878
  97.5114815  39.2444621  14.7897615  98.3992771  39.1633767  13.5661910
  95.1891906  47.4905558  10.9054683  95.6530251  47.7693261  10.1159306
  94.9248704  46.5889003  10.7227774  92.0815987  47.0377040  13.8434447
  92.6517344  47.4664308  13.2051931  92.6724099  46.7559624  14.5418632
  94.1260792  43.6128711   7.7144248  94.8284835  44.0649754   8.1818175
  93.7941420  42.9712529   8.3424142  92.5741153  42.2040467  22.0895458
  91.9439814  42.8856748  22.3230855  92.4677241  42.0923549  21.1448596
  87.8686126  41.8712263  13.0161382  87.0785180  42.1269792  12.5401493
  88.3597373  42.6860601  13.1213423 101.8849935  49.2117502  15.7666663
 102.7067379  48.8097690  15.4849344 101.8812338  49.1085737  16.7182779
  89.8200871  42.2356843   9.9744859  89.0232035  42.3475537  10.4928354
  89.5926463  42.5743495   9.1085749  95.6506539  48.7601546  17.9227373
  95.7150971  49.2221953  18.7585545  94.9417463  48.1298911  18.0509683
  86.1523829  42.1242754  15.4476373  86.4031867  43.0089764  15.7133949
  86.6883377  41.9447355  14.6751465  95.3654557  50.4269653   7.7906354
  95.2300231  51.2721189   8.2191201  95.9064369  50.6288931   7.0272287
  91.8521896  36.5061233  24.4520709  91.4588842  35.9527432  25.1268353
  92.6688037  36.8171812  24.8427226  88.8183954  47.9445091   8.3634279
  89.3308475  48.7388342   8.5139843  89.4706667  47.2471382   8.2967880
  90.6278839  51.0610848  10.4457032  90.8045467  51.9828812  10.2578016
  91.4235672  50.7469267  10.8751412  94.7689857  37.9219112  22.0440965
  95.5099571  38.5226265  21.9645428  95.0007780  37.1796750  21.4859008
  89.9131195  43.1075479  20.3219195  89.7984710  42.2060737  20.6226294
  89.0575713  43.3539176  19.9704012  96.9923033  51.0493220  21.9206696
  96.5486887  50.2629598  21.6027600  97.6540247  51.2372370  21.2550587
  91.7510154  52.5789021  16.4467374  92.3017579  52.4506085  15.6744368
  90.9121630  52.8783910  16.0962267  99.0904271  51.3296020  19.9488097
  99.0722746  52.1504901  19.4568366 100.0124191  51.2050095  20.1738238
  95.5477325  48.8440149  20.7911605  96.0805662  48.0828437  20.5610913
  95.0191406  48.5513801  21.5335760  86.7832871  46.2733746   9.1393849
  87.6208093  46.6830754   8.9227557  86.9611138  45.3333188   9.1094043
  97.7943561  36.3204870  14.2854480  97.2908356  36.2835005  13.4722286
  98.0874167  37.2297613  14.3451137  94.0386446  36.4043600  13.2920662
  94.9039443  36.2086409  12.9326552  94.1063955  36.1753952  14.2190019
  96.9130038  47.9726142   8.3030417  96.3851399  47.2378901   7.9903655
  96.4117541  48.7500818   8.0570386 101.8922884  46.1675162  13.4197464
 101.2346558  46.8574424  13.5077592 102.6963283  46.5571594  13.7631450
  91.6448765  38.6345808  10.6637029  92.2192517  38.4120989   9.9310222
  92.2319748  38.7034502  11.4165630  97.1809174  41.9968990  13.7159746
  96.2631735  42.2183937  13.5581434  97.5969317  42.0715301  12.8571453
 101.4690139  49.5025536   9.5980548 101.0152466  48.6616446   9.6545739
 100.8384106  50.1386935   9.9355328  99.9123078  51.3402033  10.5330366
 100.2046053  51.9007090   9.8142732 100.4221699  51.6330594  11.2883525
  86.8059042  43.6124461   9.8104583  86.6083442  43.0193822   9.0855649
  86.2505706  43.3076671  10.5280522  94.7855766  43.5047567  11.9299176
  94.8404375  42.5521404  11.8541652  93.9746968  43.6607006  12.4140474
  92.7248125  42.1224627   9.6889555  91.9115991  42.4218798  10.0954747
  93.2207120  41.7280316  10.4064037  94.8756703  52.1182384  11.6223819
  94.8332882  52.3443230  10.6932351  95.7919402  51.8845759  11.7709621
  98.3222337  42.5866452  18.5204449  98.6771725  42.8137925  19.3798914
  98.9694468  42.9184828  17.8981704  92.2162200  39.6942983  15.3050790
  92.8561580  39.5531742  14.6073753  91.3839731  39.4077496  14.9289392
 104.0789454  47.7761414  14.2365049 104.5125960  47.6836704  15.0848103
 104.7921034  47.7518915  13.5985065  92.9922504  48.9945413  11.4185782
  93.7863103  48.4995733  11.2168357  92.2814196  48.4663276  11.0553488
  97.8117349  51.3763509  15.7698150  97.8654371  51.9454445  16.5375866
  96.9432130  51.5465394  15.4052187  89.3005268  43.1388495   7.4945535
  88.3702856  43.0772950   7.7115497  89.3962740  42.6164448   6.6982176
  89.2190817  39.6643308  10.0823776  89.4797634  40.5788641   9.9732937
  90.0407989  39.1967750  10.2320389  90.6915742  41.0781065  17.2522601
  91.3638795  40.8698427  16.6035250  89.8645528  40.8803151  16.8127833
  96.5941314  37.7043006  19.2688262  95.9469229  38.4032955  19.1752738
  97.3642329  38.1379150  19.6364510 100.0020112  47.9691858  22.3438815
  99.8505618  47.7402410  21.4268899  99.9924791  48.9262459  22.3570160
  96.7705448  45.5423771  17.3285082  97.6997508  45.6934930  17.1554049
  96.3496478  45.6307791  16.4733728  95.5693780  49.5674435  15.0983619
  95.4304866  49.1993219  15.9709557  94.7808376  50.0822074  14.9267577
  97.1198995  48.9456038  12.4872457  96.7848828  48.9056808  13.3830107
  96.6202941  48.2800754  12.0142867  91.0943239  44.3523668  18.0125038
  90.9563037  43.6203907  18.6136577  92.0048163  44.2632568  17.7309226
  93.7225540  44.0643627  17.5008718  94.4325158  43.4236819  17.4595336
  93.6794848  44.3156522  18.4234899 101.7112319  51.0010980  20.4215297
 101.6524865  50.3170201  19.7545880 102.1131837  51.7429970  19.9695923
  92.4354474  41.0508845  19.3204357  91.8991831  40.5999583  19.9725954
  91.8471182  41.1854754  18.5774822  90.7303017  57.8172894  13.2149016
  90.9699616  58.4491418  13.8928034  89.8872214  57.4660934  13.5014375
 101.7129726  48.9650564  18.6529277 100.8256505  48.6276486  18.7755676
 102.2828277  48.2333596  18.8898042  83.3658873  45.2974656  11.9772328
  84.0529913  44.9836386  11.3893343  83.2107002  46.2016021  11.7039580
  88.1693595  40.1864853  16.4057352  88.0851784  39.5790522  15.6707762
  87.3476301  40.6773871  16.4066848  95.2430879  53.6252017  15.6190520
  95.1701051  54.4306988  16.1309824  94.8008272  53.8243983  14.7938541
  95.0320659  52.8623787   9.1293341  94.2488181  53.4045467   9.2231566
  95.7313404  53.3797766   9.5287583  97.7029563  53.5238851  17.7748679
  98.4157535  54.1586316  17.7024580  97.2119591  53.6202717  16.9588680
  94.9252278  40.8135799  11.4999231  94.5550065  40.2606840  12.1880137
  95.4211370  40.2093933  10.9474231  92.7541476  51.2733294  18.5954249
  93.4550936  51.9069777  18.7483644  92.2836591  51.6148026  17.8349889
 100.5542762  43.8277902  16.4206800  99.9014212  44.0753809  15.7659253
 100.9323142  43.0142040  16.0869277  97.5149936  53.8637595  10.5234970
  97.6972331  53.0459251  10.9862722  98.3382922  54.0805287  10.0859860
  96.6030335  44.5697713  22.9072837  95.9270972  44.4691842  23.5775212
  97.4257969  44.4136926  23.3708834  88.3509194  50.8069649  15.5285352
  88.9362631  50.0613337  15.6613256  88.1534033  51.1173606  16.4122016
  91.2047850  53.8420897  10.5447794  90.5358225  54.3267024  10.0611835
  91.0660719  54.0890117  11.4591173  82.9426849  43.3775249  14.2489795
  82.9810949  42.8438840  15.0426913  82.4367142  42.8510455  13.6300772
  95.3453118  55.8764640  17.1430453  95.8971426  56.0396262  17.9079538
  95.6859312  56.4669078  16.4710478  90.3217611  38.2239790  17.7452338
  90.3858938  39.0854621  17.3329735  90.2584732  37.6113792  17.0124696
  89.7969884  40.2962923  21.3925372  90.4241923  39.9140000  22.0062896
  88.9397803  40.0777124  21.7581064 100.1963992  50.7025898  22.9979107
 100.7403896  51.3155856  22.5034062  99.6150837  51.2605476  23.5146120
  86.5735427  42.1039352   7.3243727  86.8688868  41.1950030   7.2710780
  85.6723462  42.0827091   7.0024729  98.4821505  53.8246616  14.1294135
  98.3572645  53.0236356  13.6205080  99.1400597  54.3192809  13.6408105
  90.1029674  40.1795348  13.3071275  89.3816259  40.7931316  13.1678749
  90.8922929  40.7153113  13.2287921 100.5456414  51.6255636  15.7573685
  99.5986749  51.5060987  15.6852012 100.8939187  50.7378134  15.8399947
  92.9055987  37.5149775  19.5811927  93.4290389  37.7612071  20.3438236
  92.6868320  38.3469810  19.1615064  88.3023268  39.7853449   7.4483052
  87.9735974  38.9050828   7.2658158  88.6562639  39.7301118   8.3359441
  97.5502847  51.4208352  11.9578037  97.4027810  50.4925059  12.1385607
  98.3756341  51.4428443  11.4735113  91.4165091  40.0726419   7.8158529
  91.7561164  40.6012340   7.0937138  91.8637212  40.4106825   8.5917096
 101.1536969  52.2436911  13.0442910 102.0783516  52.0379772  12.9067361
 100.9852272  51.9953312  13.9532252  94.1108532  38.4563470  17.2661597
  93.7705353  37.6571283  17.6682277  93.4047538  38.7565181  16.6938431
  94.7625004  35.5412782  15.7188921  95.5851073  35.0673260  15.5967811
  95.0063068  36.3203266  16.2187607  92.2863583  42.2331903  13.5280899
  92.1408164  42.5472206  14.4205181  91.8088786  42.8516803  12.9751798
  94.1459966  39.2234451  13.5761789  94.1321534  38.3275544  13.2394087
  94.8632394  39.2305115  14.2100075  95.9986096  39.6571791  15.6214916
  95.7403874  40.5788862  15.6199247  95.4671137  39.2602226  16.3115380
  86.7609245  44.7737247  16.4668560  86.2162713  45.5497055  16.5988835
  87.6388595  45.1208052  16.3087682  87.5475267  43.9007144  19.3598717
  86.8057003  44.0489779  19.9463348  87.2268011  44.1615409  18.4965467
  95.4918929  53.4423122  19.1579107  95.8006056  53.1972269  20.0301807
  96.2894411  53.6469760  18.6697977  95.5139542  55.5961031  11.3884484
  95.0744532  55.1037410  12.0817340  96.2647658  55.0533999  11.1476559
  87.9931880  51.7872572  11.3909112  88.8189900  51.4876344  11.0107755
  87.6425932  51.0180195  11.8398900  92.9613414  51.1399040  13.4606785
  92.3393423  50.4769746  13.1609013  93.6318281  51.1660172  12.7780433
  86.1940486  49.7058899  12.3498045  85.3572394  49.2781073  12.1682047
  86.1664131  49.8991342  13.2868837  93.0337941  39.6180829  23.0539291
  93.0826097  40.4942951  22.6717061  93.5760455  39.0758222  22.4810935
 103.5192787  50.1621952  22.3340429 102.7288331  50.1446091  21.7944928
 103.2826141  50.7010245  23.0889465 103.6390662  47.0114418  19.6473157
 103.6888667  46.8464426  20.5888680 103.5304585  46.1441677  19.2571038
  92.5226921  49.6902964   6.9365246  92.6715041  50.3738428   6.2831919
  93.3293364  49.6708054   7.4514702 100.9294424  42.9945346  20.9632464
 101.8304287  42.8551811  20.6716462 101.0042399  43.1599801  21.9030641
  95.2637230  40.3712201  19.8085650  94.3940539  40.6645767  19.5368239
  95.4996710  40.9552646  20.5292914 103.3896047  44.5543974  18.3595237
 103.8650169  44.7471621  17.5514088 102.4661612  44.6103160  18.1138620
  90.2779554  45.7168141   7.9426315  90.0325595  44.8130471   8.1406525
  90.4475468  45.7185292   7.0005793  97.9676263  36.5891818  17.3251070
  98.4858207  37.3252845  16.9997559  97.6131396  36.8955811  18.1597830
  89.5475201  41.4496499   5.4412476  88.8544446  41.5240854   4.7852512
  89.3026953  40.6856843   5.9633993 102.0897716  41.4309734  16.5923542
 103.0415139  41.5307832  16.6135766 101.9201166  40.6388003  17.1021627
 100.1112095  38.5165318  16.7782943  99.5162028  38.7970330  16.0829432
  99.8261792  39.0059219  17.5499684  96.2907817  47.5729653  23.2093703
  97.2110827  47.7508252  23.4033749  96.2557400  46.6285699  23.0573402
  85.5089982  42.7668247  12.1346977  85.1892766  41.9133555  11.8421351
  84.9623410  42.9816825  12.8904945  89.2869890  45.4830688  15.8516484
  89.5055899  46.4147796  15.8704518  89.6995664  45.1238662  16.6371288
  94.1597755  41.0563894  25.2419233  94.0594482  42.0058251  25.1731324
  93.9419297  40.7282132  24.3695303  85.3778242  46.3871158  14.1040099
  84.6841714  45.9725111  13.5910053  86.1251233  46.4291695  13.5073518
  94.0229025  44.4861032  24.0584295  93.5396107  45.2861393  24.2648184
  94.1089964  44.4968977  23.1051739  87.2914985  46.3189412  11.9806114
  87.2685673  46.4177099  11.0287997  87.6015621  47.1654563  12.3023280
  89.9502363  48.3765567  16.0952728  90.9045616  48.3449509  16.0282660
  89.7514886  47.9156191  16.9102954  90.5401745  46.9466683  18.6623526
  91.3594634  47.4410762  18.6858363  90.8138552  46.0298651  18.6341094
  88.3052591  53.9185187  13.1122926  88.1707059  53.1585588  12.5460924
  87.8884654  54.6426086  12.6451715  91.4621717  54.8154504  13.3241369
  91.3454101  55.7599936  13.2220059  90.6414163  54.5128065  13.7127168
  85.7936659  41.2804817  19.3615723  86.4395523  40.7703771  19.8502948
  85.5853810  42.0173499  19.9359148  98.3190051  48.3485665  24.8607864
  99.1881211  48.5226317  24.4994499  97.8396803  49.1680081  24.7383593
  92.4876231  55.4682766  16.5397297  93.3903478  55.5006376  16.8563792
  92.2613601  54.5383216  16.5543633  94.2429833  54.2213752  13.2007376
  93.2925464  54.2215614  13.0871748  94.5462319  53.4746487  12.6843411
  90.1334150  38.4272434  23.4590737  90.9965611  38.0709239  23.6694062
  89.5599561  38.0886329  24.1466142 103.9899277  63.9473682  19.1080053
 103.6989143  64.8519313  18.9926719 104.6256262  63.9890210  19.8224122
  99.7610455  59.7282168  12.9710340  99.8902836  59.9816647  13.8849751
  99.0807906  60.3209876  12.6514995 103.4134908  57.5332385  22.0895458
 102.7833569  58.2148666  22.3230855 103.3070996  57.4215467  21.1448596
  98.7079880  57.2004181  13.0161382  97.9178934  57.4561709  12.5401493
  99.1991128  58.0152519  13.1213423  96.9917583  57.4534671  15.4476373
  97.2425622  58.3381681  15.7133949  97.5277132  57.2739273  14.6751465
 102.6915651  51.8353151  24.4520709 102.2982596  51.2819349  25.1268353
 103.5081791  52.1463729  24.8427226 100.7524950  58.4367397  20.3219195
 100.6378465  57.5352654  20.6226294  99.8969467  58.6831094  19.9704012
 103.0555955  55.0234900  15.3050790 103.6955334  54.8823659  14.6073753
 102.2233485  54.7369414  14.9289392 101.5309496  56.4072982  17.2522601
 102.2032550  56.1990345  16.6035250 100.7039283  56.2095068  16.8127833
 101.9336994  59.6815585  18.0125038 101.7956792  58.9495824  18.6136577
 102.8441917  59.5924486  17.7309226 103.2748228  56.3800763  19.3204357
 102.7385585  55.9291501  19.9725954 102.6864937  56.5146671  18.5774822
  94.2052627  60.6266574  11.9772328  94.8923667  60.3128304  11.3893343
  94.0500756  61.5307938  11.7039580  99.0087350  55.5156770  16.4057352
  98.9245538  54.9082440  15.6707762  98.1870056  56.0065789  16.4066848
 103.5935231  66.6025212  18.5954249 104.2944690  67.2361695  18.7483644
 103.1230346  66.9439943  17.8349889  93.7820604  58.7067167  14.2489795
  93.8204703  58.1730758  15.0426913  93.2760896  58.1802373  13.6300772
 101.1611366  53.5531708  17.7452338 101.2252692  54.4146539  17.3329735
 101.0978486  52.9405709  17.0124696 100.6363638  55.6254840  21.3925372
 101.2635677  55.2431918  22.0062896  99.7791557  55.4069042  21.7581064
 100.9423428  55.5087266  13.3071275 100.2210014  56.1223234  13.1678749
 101.7316684  56.0445031  13.2287921 103.7449742  52.8441692  19.5811927
 104.2684143  53.0903989  20.3438236 103.5262075  53.6761727  19.1615064
 104.9502287  53.7855388  17.2661597 104.6099107  52.9863201  17.6682277
 104.2441293  54.0857098  16.6938431 103.1257337  57.5623821  13.5280899
 102.9801918  57.8764124  14.4205181 102.6482541  58.1808721  12.9751798
  97.6002999  60.1029165  16.4668560  97.0556468  60.8788973  16.5988835
  98.4782349  60.4499969  16.3087682  98.3869021  59.2299061  19.3598717
  97.6450757  59.3781697  19.9463348  98.0661766  59.4907327  18.4965467
 103.8731696  54.9472746  23.0539291 103.9219851  55.8234869  22.6717061
 104.4154210  54.4050139  22.4810935  96.3483737  58.0960165  12.1346977
  96.0286521  57.2425473  11.8421351  95.8017165  58.3108743  12.8904945
 100.1263644  60.8122606  15.8516484 100.3449654  61.7439713  15.8704518
 100.5389418  60.4530580  16.6371288 104.9991509  56.3855811  25.2419233
 104.8988236  57.3350168  25.1731324 104.7813052  56.0574050  24.3695303
  96.2171997  61.7163076  14.1040099  95.5235468  61.3017029  13.5910053
  96.9644988  61.7583613  13.5073518 104.8622780  59.8152950  24.0584295
 104.3789861  60.6153310  24.2648184 104.9483719  59.8260895  23.1051739
 100.7896117  63.7057485  16.0952728 101.7439371  63.6741427  16.0282660
 100.5908641  63.2448109  16.9102954 101.3795499  62.2758601  18.6623526
 102.1988388  62.7702680  18.6858363 101.6532307  61.3590569  18.6341094
  96.6330413  56.6096735  19.3615723  97.2789277  56.0995689  19.8502948
  96.4247565  57.3465416  19.9359148 100.9727904  53.7564352  23.4590737
 101.8359366  53.4001157  23.6694062 100.3993315  53.4178247  24.1466142
   1.5818377  53.2202214  78.4925098   0.8282086  52.6509612  78.3369102
   1.7165919  53.1864879  79.4395733   1.9924792  53.3777824  81.2245342
   2.7228181  53.1163112  81.7853046   1.3831738  52.6406546  81.2647410
   1.5844976  67.7220254  80.6426602   2.2223386  67.6027001  79.9389942
   1.4665819  68.6701098  80.7014554   1.1386244  65.4471708  77.7179810
   1.9249333  65.0291131  77.3670227   1.4024948  66.3517800  77.8861459
   1.3096321  70.8844558  72.4168467   0.6742154  70.9579184  73.1289372
   0.9793728  71.4738157  71.7387546   6.5394671  65.3846941  78.6212789
   7.2719843  64.8146158  78.8550618   5.7834027  64.9968541  79.0619294
   4.0620092  59.0968515  83.0807397   3.7303416  59.9663926  82.8568612
   3.4665705  58.7804799  83.7601428   3.9548755  63.8163601  80.1600747
   3.0465632  63.7479010  79.8659508   3.9036351  64.2935546  80.9882573
   5.8210401  62.0180039  81.9378621   5.1784782  62.3112573  81.2918416
   5.3165330  61.9032960  82.7431818   3.4750565  65.7643213  72.6264480
   4.3868421  65.9970599  72.4512178   2.9660212  66.3480257  72.0639559
   2.0820147  70.7469031  80.0178062   1.4529010  70.9114745  79.3154130
   1.6945809  71.1610641  80.7889026   5.9609379  71.6823469  77.3722426
   5.2760417  72.0622370  76.8219459   6.0453229  72.2918796  78.1054373
   1.2621848  62.7844816  85.2940504   1.0182780  63.5386876  84.7574779
   1.5381779  63.1630163  86.1287751   3.2160311  69.3283428  83.9717769
   3.4277206  69.9715188  83.2952150   3.1690059  68.4945745  83.5039699
   4.3306139  72.2055383  82.1440127   5.1523582  71.8035571  81.8622808
   4.3268542  72.1023618  83.0956242  12.4212132  68.5494132  78.4925098
  11.6675840  67.9801530  78.3369102  12.5559673  68.5156796  79.4395733
   1.1603223  56.9438096  82.6978711   0.8167493  57.8339738  82.6217821
   1.5282186  56.7539754  81.8348296   6.0987780  69.6879062  73.1404319
   5.3217223  69.3490221  72.6959482   6.7779261  69.6931685  72.4659284
   4.3379087  69.1613043  79.7970927   3.6802762  69.8512304  79.8851056
   5.1419486  69.5509475  80.1404914   3.1484546  67.5157416  77.8474869
   3.6616428  68.1487408  78.3496579   3.7985770  66.9158611  77.4818229
   3.9146342  72.4963417  75.9754012   3.4608669  71.6554327  76.0319202
   3.2840309  73.1324816  76.3128792   2.8579262  63.4255403  77.2054679
   2.1202019  62.9132789  77.5364922   3.1106035  62.9855785  76.3937956
   2.3579281  74.3339914  76.9103830   2.6502256  74.8944971  76.1916196
   2.8677902  74.6268475  77.6656989   2.9590889  56.2031655  77.7996449
   3.2649766  55.3429019  77.5122364   3.6843494  56.7949275  77.5995442
   0.7678540  65.5804333  84.8977912   1.1227928  65.8075806  85.7572378
   1.4150672  65.9122709  84.2755168   6.4976277  68.7022768  75.6027241
   6.3594176  68.8924364  74.6748431   6.1412496  69.4642151  76.0595293
   6.5245657  70.7699295  80.6138513   6.9582164  70.6774585  81.4621567
   7.2377238  70.7456796  79.9758529   7.3861207  70.8122996  83.1471398
   7.5797097  71.7168807  83.3930673   7.2861825  70.3530415  83.9809983
   2.5014390  69.2849953  69.1382980   1.8843561  68.5596781  69.0416033
   2.0330879  70.0459313  68.7950055   4.1585929  71.9588445  85.0302740
   3.2712708  71.6214367  85.1529139   4.7284480  71.2271477  85.2671506
   8.6403270  67.3696663  79.7919302   8.6293146  68.2521378  79.4213235
   7.7720649  67.0168214  79.5973839   1.8703293  70.4227984  75.7239434
   0.9359572  70.5429447  75.5544138   2.0479961  69.5200451  75.4599444
   5.2575844  66.2645304  76.2589468   5.7236297  67.0973295  76.1849771
   5.7083345  65.7990285  76.9634727   3.3252075  72.6089125  73.2575620
   3.6011919  72.4945720  74.1669494   2.4556574  72.2106610  73.2187793
   3.2292507  58.6325891  80.2980369   2.3155587  58.8630118  80.4662576
   3.6585609  58.7164335  81.1494402   2.9998966  66.8215783  82.7980263
   2.3470416  67.0691690  82.1432716   3.3779345  66.0079921  82.4642741
   0.9277709  76.8184497  80.5067599   0.8028848  76.0174237  79.9978544
   1.5856800  77.3130690  80.0181569   2.9912617  74.6193517  82.1347149
   2.0442953  74.4998868  82.0625476   3.3395390  73.7316015  82.2173410
   3.5993172  75.2374792  79.4216374   4.5239720  75.0317653  79.2840825
   3.4308476  74.9891193  80.3305715   3.3888488  75.7560459  74.7778465
   3.5625366  75.1906882  74.0252318   3.8817380  76.5561354  74.5957955
   9.2427880  68.5196882  76.3968765   9.6859026  67.7704207  75.9987888
   8.3654390  68.5107018  76.0142497   4.3763661  75.0727224  71.8775364
   5.0714566  75.6933916  72.0962678   4.7186811  74.2222575  72.1527741
   6.2755084  72.5226929  73.4062694   6.8006408  72.8614202  72.6812014
   6.1877437  71.5873944  73.2225829   6.0846865  70.0052299  86.0246621
   6.1344870  69.8402307  86.9662144   5.9760789  69.1379558  85.6344502
   3.3750628  65.9883227  87.3405927   4.2760490  65.8489692  87.0489925
   3.4498602  66.1537682  88.2804105   7.5865062  72.4249241  86.2688642
   7.2949870  72.7879221  87.1052103   6.9737193  71.7116249  86.0901974
   8.7860744  69.9902120  78.7891213   9.6207636  70.4291924  78.9528773
   8.9219873  69.5140774  77.9699458   5.8352250  67.5481855  84.7368700
   6.3106372  67.7409502  83.9287552   4.9117816  67.6041041  84.4912084
   0.6645061  56.0029981  79.2225431   0.9446815  55.3353170  79.8485857
   1.4495668  56.1959077  78.7100095   4.5353919  64.4247615  82.9697006
   5.4871342  64.5245713  82.9909230   4.3657370  63.6325884  83.4795090
   2.5568299  61.5103199  83.1556407   1.9618231  61.7908211  82.4602895
   2.2717995  61.9997099  83.9273148   1.6875789  75.4626125  71.9159039
   2.6206462  75.3971687  72.1191915   1.5999002  76.2982392  71.4573572
   4.3163806  74.7791996  68.8762987   4.2377437  74.4451859  69.7698745
   5.1373473  75.2713764  68.8754459   7.0141997  67.6453735  82.0839306
   6.9818317  66.7069736  82.2698989   7.6242621  67.7237772  81.3505130
   7.1636486  64.4364778  82.1297589   6.6475534  63.6523235  81.9427518
   8.0476434  64.1083495  82.2944108   4.8247212  58.1805794  78.0893401
   4.6272034  57.8720882  78.9736733   5.4346918  58.9067433  78.2191331
  12.8318547  68.7069742  81.2245342  13.5621935  68.4455030  81.7853046
  12.2225492  67.9698464  81.2647410  10.9133844  66.8477604  81.8219794
  10.1867008  66.7133569  81.2136285  10.4981131  67.1554433  82.6276512
   3.9599666  60.1715226  75.3468597   3.3798335  60.8300030  74.9646649
   3.6935599  59.3492571  74.9356015   2.4103233  59.5720284  77.5489917
   2.9103011  59.6836818  76.7404236   3.0538840  59.2681337  78.1890726
   2.7424544  62.3315316  74.4024945   1.8550399  62.6164967  74.1845140
   3.1578533  62.1709080  73.5552222   6.0939080  62.3561837  78.1179285
   6.8699470  62.8458290  78.3903901   5.3687214  62.7819892  78.5751154
   8.5311639  63.0689457  79.1753225   9.1256130  62.8285193  78.4646533
   8.6038223  62.3496587  79.8026761   1.8867758  72.0959991  68.4972965
   2.5903608  72.3009994  69.1130621   1.1630406  72.6636753  68.7622049
   2.7165568  67.8469852  74.6175235   2.6600769  68.3038404  73.7782868
   3.2693910  67.0860537  74.4398078   6.5270374  63.6359584  75.4425355
   6.2707308  63.2356220  76.2733563   5.9023242  64.3503378  75.3175494
  10.8382712  66.3755657  77.9496646  10.2782270  66.4448847  78.7228208
  10.2326215  66.1996642  77.2296143   3.7954455  72.5342520  70.5471425
   4.6300059  72.1023719  70.3648900   3.6338798  72.3624534  71.4748320
   3.4500347  69.0374634  71.9127765   3.3949151  68.8718905  70.9716209
   2.8246402  69.7450667  72.0689954  12.4238730  83.0512171  80.6426602
  13.0617140  82.9318919  79.9389942  12.3059573  83.9993015  80.7014554
   9.2328436  83.0039600  80.5788127   8.8946948  82.8880664  79.6908662
  10.1018205  82.6030765  80.5589133   5.0915252  84.8575076  76.5685018
   4.5280117  84.7665013  75.8001305   4.9767647  84.0374980  77.0487510
  10.6714811  88.5246044  71.8799483  10.0202791  89.1100124  71.4933496
  11.4659174  89.0552239  71.9394520   4.5970438  85.6135181  72.2786617
   5.3701314  85.0664168  72.1399493   4.9495837  86.4779430  72.4901078
   7.3611687  84.3188412  82.0754876   7.9575260  84.0944434  81.3611839
   7.4186659  83.5773157  82.6780324   6.9336716  81.7727847  69.9105067
   7.1862236  81.2509368  69.1488530   5.9961275  81.6093992  70.0131750
  11.9779999  80.7763625  77.7179810  12.7643088  80.3583048  77.3670227
  12.2418703  81.6809717  77.8861459  12.1490076  86.2136476  72.4168467
  11.5135909  86.2871102  73.1289372  11.8187482  86.8030074  71.7387546
  17.3788426  80.7138858  78.6212789  18.1113598  80.1438075  78.8550618
  16.6227781  80.3260459  79.0619294   6.6533005  83.6755953  72.1129442
   6.5369263  83.0000856  72.7810526   6.7635264  83.1888327  71.2961595
   8.9964545  83.1366100  75.8176131   8.6322753  82.6096721  76.5289053
   9.8531661  82.7464569  75.6442616  14.9013846  74.4260433  83.0807397
  14.5697171  75.2955844  82.8568612  14.3059459  74.1096717  83.7601428
   8.6370032  78.1656000  70.8137480   8.8044435  79.0336236  71.1807951
   8.4467202  78.3283281  69.8898769  11.3945366  86.6272979  82.4803310
  11.0946089  87.5298017  82.3719117  11.0496425  86.3605162  83.3324463
   4.8457847  83.0786775  78.5140014   3.9208344  82.9462990  78.7217706
   5.0942260  83.8580995  79.0109957  14.7942509  79.1455519  80.1600747
  13.8859387  79.0770927  79.8659508  14.7430105  79.6227464  80.9882573
   8.6159253  80.6213657  71.7984146   8.4958879  81.0670708  72.6369627
   7.9211842  80.9698975  71.2397685  16.6604156  77.3471957  81.9378621
  16.0178536  77.6404490  81.2918416  16.1559084  77.2324877  82.7431818
  14.3144319  81.0935130  72.6264480  15.2262176  81.3262517  72.4512178
  13.8053967  81.6772175  72.0639559   8.9516157  80.4532365  83.6359330
   9.7977352  80.8771779  83.7793979   8.8914795  79.7965989  84.3297893
  12.9213902  86.0760949  80.0178062  12.2922764  86.2406663  79.3154130
  12.5339564  86.4902558  80.7889026  16.8003134  87.0115387  77.3722426
  16.1154172  87.3914288  76.8219459  16.8846983  87.6210713  78.1054373
  12.1015603  78.1136733  85.2940504  11.8576534  78.8678794  84.7574779
  12.3775533  78.4922081  86.1287751  14.0554065  84.6575346  83.9717769
  14.2670961  85.3007106  83.2952150  14.0083814  83.8237662  83.5039699
  11.6580294  77.2693166  80.8754341  10.7964773  77.5674420  81.1671079
  11.6842729  77.4863565  79.9435374   8.4741864  85.8135357  77.2828147
   8.9380209  86.0923060  76.4932770   8.2098662  84.9118801  77.1001238
   7.4110750  81.9358509  74.0917712   8.1134793  82.3879553  74.5591639
   7.0791378  81.2942328  74.7197605  15.1699893  87.5347301  82.1440127
  15.9917337  87.1327488  81.8622808  15.1662296  87.4315535  83.0956242
   3.1050829  80.5586641  76.3518322   2.3081992  80.6705335  76.8701818
   2.8776421  80.8973293  75.4859213  23.2605886  83.8786050  78.4925098
  22.5069595  83.3093448  78.3369102  23.3953428  83.8448714  79.4395733
   8.6504514  88.7499452  74.1679817   8.5150189  89.5950988  74.5964665
   9.1914327  88.9518730  73.4045751   2.1033912  86.2674890  74.7407742
   2.6158432  87.0618140  74.8913307   2.7556625  85.5701180  74.6741344
  11.9996978  72.2730014  82.6978711  11.6561247  73.1631655  82.6217821
  12.3675941  72.0831671  81.8348296  11.9647261  82.2638625  71.2051146
  11.4493884  83.0343230  71.4439533  11.6924569  81.5903761  71.8284207
   9.5494372  77.1088326  76.2636384   8.6935968  76.7195176  76.0842023
   9.9621323  77.1880286  75.4036170  11.0793518  74.6434669  80.6627944
  10.5758314  74.6064804  79.8495749  11.3724125  75.5527412  80.7224601
   7.3236404  74.7273399  79.6694126   8.1889401  74.5316207  79.3100015
   7.3913913  74.4983750  80.5963483  16.9381535  85.0170980  73.1404319
  16.1610978  84.6782139  72.6959482  17.6173016  85.0223603  72.4659284
  11.7533564  80.1365717  73.0310927  11.4483699  80.4511866  73.8821070
  12.7064006  80.2147137  73.0738260  10.1979996  86.2955940  74.6803881
   9.6701357  85.5608700  74.3677119   9.6967498  87.0730617  74.4343849
  15.1772842  84.4904961  79.7970927  14.5196516  85.1804222  79.8851056
  15.9813241  84.8801393  80.1404914   4.9298723  76.9575607  77.0410493
   5.5042475  76.7350788  76.3083686   5.5169706  77.0264301  77.7939094
  13.9878300  82.8449333  77.8474869  14.5010182  83.4779325  78.3496579
  14.6379524  82.2450529  77.4818229   5.2568310  78.9880068  71.0606378
   4.4205623  79.3254754  71.3815653   5.1173080  78.8529047  70.1233515
   7.2321391  73.8316855  75.7685562   6.5785803  73.5165873  75.1442177
   7.1901865  73.2092596  76.4945385   8.3432596  84.1136151  67.6838854
   7.4359658  83.8825404  67.8830003   8.8403628  83.3173770  67.8712836
  10.4659131  80.3198789  80.0933210   9.5481693  80.5413736  79.9354898
  10.8819275  80.3945099  79.2344917  11.2494179  81.7190205  75.2235890
  11.9965998  82.2311602  74.9143012  11.5185769  81.3974257  76.0840284
   9.5220829  84.2148745  72.2062844   8.6132049  83.9307778  72.3035314
   9.5515913  84.6347824  71.3466151  14.7540097  87.8255335  75.9754012
  14.3002424  86.9846245  76.0319202  14.1234063  88.4616733  76.3128792
  13.6973016  78.7547321  77.2054679  12.9595773  78.2424707  77.5364922
  13.9499790  78.3147703  76.3937956  13.1973036  89.6631832  76.9103830
  13.4896010  90.2236889  76.1916196  13.7071657  89.9560393  77.6656989
  13.7984644  71.5323573  77.7996449  14.1043520  70.6720936  77.5122364
  14.5237248  72.1241193  77.5995442   8.0705723  81.8277366  78.3072640
   8.1254333  80.8751202  78.2315116   7.2596925  81.9836805  78.7913938
   9.2196917  85.7557489  69.5450923   8.7816347  85.0393348  69.0856560
   9.9607358  85.9833604  68.9836014   6.0098083  80.4454426  76.0663018
   5.1965949  80.7448596  76.4728211   6.5057077  80.0510115  76.7837501
   8.1606661  90.4412183  77.9997283   8.1182840  90.6673029  77.0705815
   9.0769360  90.2075557  78.1483084  11.6072295  80.9096250  84.8977912
  11.9621683  81.1367723  85.7572378  12.2544426  81.2414627  84.2755168
  17.3370032  84.0314686  75.6027241  17.1987930  84.2216282  74.6748431
  16.9806251  84.7934069  76.0595293   5.5012158  78.0172781  81.6824253
   6.1411537  77.8761540  80.9847217   4.6689689  77.7307295  81.3062855
  17.3639411  86.0991213  80.6138513  17.7975918  86.0066502  81.4621567
  18.0770992  86.0748714  79.9758529   6.2772462  87.3175212  77.7959246
   7.0713060  86.8225532  77.5941821   5.5664154  86.7893075  77.4326951
   2.5855225  81.4618293  73.8718999   1.6552813  81.4002749  74.0888961
   2.6812697  80.9394246  73.0755640   2.5040774  77.9873106  76.4597240
   2.7647592  78.9018440  76.3506401   3.3257947  77.5197549  76.6093853
  18.2254961  86.1414914  83.1471398  18.4190851  87.0460724  83.3930673
  18.1255579  85.6822333  83.9809983   9.8791272  76.0272804  85.6461726
   9.2319187  76.7262754  85.5526202  10.6492287  76.4608948  86.0137974
  10.0555406  83.8653569  83.7058545  10.9847466  84.0164729  83.5327513
   9.6346436  83.9537590  82.8507192  10.4048953  87.2685836  78.8645921
  10.0698786  87.2286606  79.7603571   9.9052899  86.6030552  78.3916331
  13.3408145  84.6141871  69.1382980  12.7237315  83.8888699  69.0416033
  12.8724633  85.3751231  68.7950055   5.1306691  78.8327295  68.2604285
   4.2536157  78.7116096  67.8966531   5.6064444  78.0413373  68.0083173
  14.9979684  87.2880363  85.0302740  14.1106462  86.9506285  85.1529139
  15.5678235  86.5563394  85.2671506   8.3170617  91.1853585  75.5066805
   7.5338139  91.7275266  75.6005030   9.0163362  91.7027565  75.9061046
  11.6267267  76.9948215  78.1501011  12.1235966  76.2418177  77.8302081
  10.8554248  77.0312532  77.5844220  19.4797024  82.6988580  79.7919302
  19.4686900  83.5813296  79.4213235  18.6114404  82.3460131  79.5973839
  12.7097047  85.7519902  75.7239434  11.7753326  85.8721365  75.5544138
  12.8873716  84.8492369  75.4599444   8.2102236  79.1365598  77.8772695
   7.8400023  78.5836638  78.5653601   8.7061328  78.5323731  77.3247695
  16.0969599  81.5937221  76.2589468  16.5630051  82.4265213  76.1849771
  16.5477099  81.1282203  76.9634727  14.1645830  87.9381043  73.2575620
  14.4405674  87.8237637  74.1669494  13.2950329  87.5398528  73.2187793
  14.0686262  73.9617808  80.2980369  13.1549341  74.1922035  80.4662576
  14.4979363  74.0456252  81.1494402  13.8392720  82.1507700  82.7980263
  13.1864170  82.3983608  82.1432716  14.2173100  81.3371839  82.4642741
  10.7999894  92.1867393  76.9008434  10.9822288  91.3689049  77.3636186
  11.6232880  92.4035086  76.4633324  11.1342059  91.1135579  74.1623482
  11.6629826  90.6028033  73.5493644  11.3970279  90.7978109  75.0269015
  11.7671463  92.1476414  80.5067599  11.6422603  91.3466154  79.9978544
  12.4250554  92.6422608  80.0181569   3.3879631  78.5025147  79.6844739
   2.6666217  79.1161115  79.5452212   4.1772887  79.0382912  79.6061385
  13.8306372  89.9485434  82.1347149  12.8836707  89.8290786  82.0625476
  14.1789145  89.0607932  82.2173410   1.5873226  78.1083248  73.8256516
   1.2585932  77.2280627  73.6431621   1.9412597  78.0530917  74.7132905
  10.8352805  89.7438151  78.3351501  10.6877767  88.8154858  78.5159071
  11.6606298  89.7658241  77.8508576   4.7015049  78.3956218  74.1931993
   5.0411122  78.9242139  73.4710602   5.1487170  78.7336624  74.9690560
  14.4386927  90.5666709  79.4216374  15.3633474  90.3609571  79.2840825
  14.2702230  90.3183111  80.3305715   7.3958490  76.7793268  83.6435061
   7.0555310  75.9801082  84.0455741   6.6897496  77.0794979  83.0711894
   8.0474962  73.8642581  82.0962384   8.8701031  73.3903059  81.9741275
   8.2913025  74.6433065  82.5961071   6.6883196  76.8930839  72.3925286
   7.4091559  77.2712092  71.8889003   6.0648500  77.6119716  72.4960264
  10.8314319  77.5975988  73.3283618  11.0477934  78.4800626  73.0272446
  10.3508386  77.2062202  72.5989260   5.5713541  80.5561702  79.9054363
   5.4258121  80.8702005  80.7978644   5.0938744  81.1746602  79.3525262
   7.4309923  77.5464250  79.9535252   7.4171492  76.6505343  79.6167550
   8.1482352  77.5534913  80.5873538   9.2836054  77.9801590  81.9988380
   9.0253832  78.9018660  81.9972710   8.7521095  77.5832024  82.6888844
  14.2282243  91.0852377  74.7778465  14.4019120  90.5198799  74.0252318
  14.7211134  91.8853272  74.5957955   6.8346819  76.4278630  75.2222823
   6.9562731  75.4995276  75.4213710   6.5448862  76.4417316  74.3101138
   9.7038010  74.1133540  78.3589542   9.7259707  74.1772873  77.4041522
  10.1206069  73.2738049  78.5530049  20.0821634  83.8488800  76.3968765
  20.5252780  83.0996125  75.9987888  19.2048144  83.8398936  76.0142497
  15.2157415  90.4019141  71.8775364  15.9108320  91.0225834  72.0962678
  15.5580566  89.5514492  72.1527741  17.1148839  87.8518847  73.4062694
  17.6400163  88.1906120  72.6812014  17.0271191  86.9165862  73.2225829
  16.9240620  85.3344217  86.0246621  16.9738625  85.1694224  86.9662144
  16.8154543  84.4671476  85.6344502   5.8076878  88.0132762  73.3138710
   5.9564999  88.6968227  72.6605382   6.6143322  87.9937853  73.8288165
  14.2144382  81.3175145  87.3405927  15.1154245  81.1781610  87.0489925
  14.2892357  81.4829600  88.2804105  18.4258817  87.7541158  86.2688642
  18.1343625  88.1171139  87.1052103  17.8130948  87.0408167  86.0901974
  19.6254499  85.3194038  78.7891213  20.4601390  85.7583842  78.9528773
  19.7613628  84.8432691  77.9699458  16.6746005  82.8773773  84.7368700
  17.1500126  83.0701419  83.9287552  15.7511570  82.9332959  84.4912084
   3.5629511  84.0397940  74.3199779   3.3175553  83.1360270  74.5179989
   3.7325426  84.0415091  73.3779257  11.2526221  74.9121616  83.7024534
  11.7708165  75.6482643  83.3771023  10.8981354  75.2185610  84.5371293
   2.8325159  79.7726298  71.8185940   2.1394404  79.8470653  71.1625976
   2.5876911  79.0086641  72.3407457  11.5038815  71.3321899  79.2225431
  11.7840569  70.6645088  79.8485857  12.2889422  71.5250995  78.7100095
   9.3072284  90.5080893  70.7850457   8.7346251  91.1271080  70.3320929
   9.8805078  91.0580255  71.3190379  15.3747674  79.7539533  82.9697006
  16.3265097  79.8537631  82.9909230  15.2051124  78.9617802  83.4795090
  13.3962053  76.8395116  83.1556407  12.8011985  77.1200129  82.4602895
  13.1111750  77.3289017  83.9273148  12.5269544  90.7918043  71.9159039
  13.4600217  90.7263605  72.1191915  12.4392757  91.6274310  71.4573572
  15.1557560  90.1083913  68.8762987  15.0771192  89.7743777  69.7698745
  15.9767227  90.6005681  68.8754459  17.8535752  82.9745653  82.0839306
  17.8212072  82.0361653  82.2698989  18.4636375  83.0529689  81.3505130
   9.6919082  81.8441706  68.1266510  10.6378187  81.7147914  68.1954928
   9.3133327  81.1056368  68.6035938  18.0030240  79.7656696  82.1297589
  17.4869289  78.9815153  81.9427518  18.8870189  79.4375413  82.2944108
  15.6640967  73.5097712  78.0893401  15.4665788  73.2012800  78.9736733
  16.2740673  74.2359351  78.2191331  23.6712301  84.0361660  81.2245342
  24.4015690  83.7746948  81.7853046  23.0619247  83.2990381  81.2647410
  21.7527599  82.1769522  81.8219794  21.0260762  82.0425487  81.2136285
  21.3374885  82.4846351  82.6276512   7.8762000  79.7691682  68.0621395
   6.9693455  79.4724795  68.1384108   8.1537981  79.4721500  67.1955681
   9.4924065  74.3128572  74.2165636   8.6824794  73.9675657  74.5920882
  10.1808482  74.0036116  74.8053248  11.4214614  73.3906619  75.8389933
  11.9745652  73.8102072  76.4979956  11.6584700  72.4642367  75.8812889
   6.6460784  76.6278617  68.2033374   7.5079948  76.9533516  68.4629191
   6.8311128  75.8410113  67.6906440  14.7993421  75.5007144  75.3468597
  14.2192090  76.1591948  74.9646649  14.5329353  74.6784488  74.9356015
  13.2496987  74.9012201  77.5489917  13.7496765  75.0128736  76.7404236
  13.8932595  74.5973254  78.1890726  13.5818299  77.6607234  74.4024945
  12.6944154  77.9456885  74.1845140  13.9972288  77.5000998  73.5552222
  16.9332835  77.6853755  78.1179285  17.7093225  78.1750208  78.3903901
  16.2080969  78.1111809  78.5751154  19.3705393  78.3981374  79.1753225
  19.9649884  78.1577110  78.4646533  19.4431977  77.6788505  79.8026761
  12.7261512  87.4251909  68.4972965  13.4297362  87.6301911  69.1130621
  12.0024161  87.9928671  68.7622049  13.5559322  83.1761770  74.6175235
  13.4994524  83.6330321  73.7782868  14.1087665  82.4152455  74.4398078
  17.3664128  78.9651502  75.4425355  17.1101063  78.5648138  76.2733563
  16.7416996  79.6795296  75.3175494  21.6776466  81.7047575  77.9496646
  21.1176024  81.7740764  78.7228208  21.0719970  81.5288560  77.2296143
  14.6348210  87.8634438  70.5471425  15.4693813  87.4315636  70.3648900
  14.4732552  87.6916452  71.4748320  14.2894102  84.3666551  71.9127765
  14.2342906  84.2010823  70.9716209  13.6640157  85.0742584  72.0689954
   7.5990227  73.8674660  71.4913083   7.5868897  74.8116500  71.6481354
   8.4913649  73.6844806  71.1972544  11.4142347  70.4617437  75.7459020
  10.6474742  69.9075924  75.8915702  11.8253052  70.5339306  76.6073171
  22.8173753  96.1055543  77.7179810  23.6036842  95.6874966  77.3670227
  23.0812457  97.0101635  77.8861459  28.2182180  96.0430776  78.6212789
  28.9507352  95.4729993  78.8550618  27.4621536  95.6552377  79.0619294
  25.7407601  89.7552350  83.0807397  25.4090925  90.6247761  82.8568612
  25.1453214  89.4388634  83.7601428  19.4763787  93.4947917  70.8137480
  19.6438189  94.3628154  71.1807951  19.2860956  93.6575199  69.8898769
  25.6336264  94.4747436  80.1600747  24.7253141  94.4062845  79.8659508
  25.5823860  94.9519381  80.9882573  27.4997910  92.6763875  81.9378621
  26.8572291  92.9696408  81.2918416  26.9952839  92.5616795  82.7431818
  25.1538074  96.4227048  72.6264480  26.0655930  96.6554435  72.4512178
  24.6447721  97.0064092  72.0639559  19.7909912  95.7824283  83.6359330
  20.6371107  96.2063696  83.7793979  19.7308549  95.1257907  84.3297893
  22.9409357  93.4428651  85.2940504  22.6970289  94.1970712  84.7574779
  23.2169288  93.8213999  86.1287751  22.4974049  92.5985084  80.8754341
  21.6358528  92.8966338  81.1671079  22.5236483  92.8155483  79.9435374
  34.0999641  99.2077967  78.4925098  33.3463349  98.6385365  78.3369102
  34.2347182  99.1740632  79.4395733  22.8390732  87.6021931  82.6978711
  22.4955002  88.4923573  82.6217821  23.2069695  87.4123589  81.8348296
  20.3888126  92.4380243  76.2636384  19.5329722  92.0487094  76.0842023
  20.8015078  92.5172204  75.4036170  21.9187273  89.9726587  80.6627944
  21.4152068  89.9356722  79.8495749  22.2117880  90.8819329  80.7224601
  18.1630159  90.0565316  79.6694126  19.0283155  89.8608125  79.3100015
  18.2307668  89.8275668  80.5963483  22.5927318  95.4657635  73.0310927
  22.2877454  95.7803784  73.8821070  23.5457760  95.5439055  73.0738260
  15.7692478  92.2867524  77.0410493  16.3436230  92.0642706  76.3083686
  16.3563460  92.3556219  77.7939094  18.0715145  89.1608773  75.7685562
  17.4179558  88.8457790  75.1442177  18.0295620  88.5384514  76.4945385
  21.3052886  95.6490707  80.0933210  20.3875447  95.8705654  79.9354898
  21.7213029  95.7237017  79.2344917  24.5366771  94.0839239  77.2054679
  23.7989528  93.5716625  77.5364922  24.7893544  93.6439620  76.3937956
  24.6378398  86.8615491  77.7996449  24.9437275  86.0012854  77.5122364
  25.3631003  87.4533111  77.5995442  22.4466049  96.2388168  84.8977912
  22.8015437  96.4659641  85.7572378  23.0938181  96.5706545  84.2755168
  16.3405912  93.3464699  81.6824253  16.9805292  93.2053458  80.9847217
  15.5083443  93.0599212  81.3062855  20.7185026  91.3564722  85.6461726
  20.0712941  92.0554672  85.5526202  21.4886042  91.7900866  86.0137974
  15.9700445  94.1619213  68.2604285  15.0929911  94.0408013  67.8966531
  16.4458198  93.3705291  68.0083173  22.4661021  92.3240133  78.1501011
  22.9629721  91.5710095  77.8302081  21.6948003  92.3604449  77.5844220
  30.3190779  98.0280498  79.7919302  30.3080655  98.9105213  79.4213235
  29.4508158  97.6752049  79.5973839  19.0495990  94.4657516  77.8772695
  18.6793778  93.9128556  78.5653601  19.5455082  93.8615649  77.3247695
  26.9363353  96.9229139  76.2589468  27.4023805  97.7557131  76.1849771
  27.3870854  96.4574121  76.9634727  24.9080016  89.2909726  80.2980369
  23.9943096  89.5213953  80.4662576  25.3373117  89.3748170  81.1494402
  12.4266981  93.4375166  73.8256516  12.0979687  92.5572545  73.6431621
  12.7806351  93.3822834  74.7132905  15.5408804  93.7248135  74.1931993
  15.8804876  94.2534057  73.4710602  15.9880924  94.0628542  74.9690560
  18.2352245  92.1085186  83.6435061  17.8949065  91.3092999  84.0455741
  17.5291251  92.4086897  83.0711894  18.8868716  89.1934499  82.0962384
  19.7094786  88.7194977  81.9741275  19.1306780  89.9724982  82.5961071
  17.5276951  92.2222757  72.3925286  18.2485313  92.6004010  71.8889003
  16.9042255  92.9411634  72.4960264  21.6708074  92.9267906  73.3283618
  21.8871688  93.8092544  73.0272446  21.1902141  92.5354119  72.5989260
  18.2703678  92.8756167  79.9535252  18.2565247  91.9797260  79.6167550
  18.9876106  92.8826831  80.5873538  20.1229809  93.3093507  81.9988380
  19.8647587  94.2310578  81.9972710  19.5914849  92.9123942  82.6888844
  17.6740574  91.7570547  75.2222823  17.7956485  90.8287194  75.4213710
  17.3842616  91.7709233  74.3101138  20.5431764  89.4425458  78.3589542
  20.5653461  89.5064791  77.4041522  20.9599823  88.6029967  78.5530049
  30.9215389  99.1780717  76.3968765  31.3646535  98.4288043  75.9987888
  30.0441899  99.1690854  76.0142497  25.0538137  96.6467062  87.3405927
  25.9547999  96.5073527  87.0489925  25.1286111  96.8121517  88.2804105
  27.5139759  98.2065691  84.7368700  27.9893881  98.3993337  83.9287552
  26.5905325  98.2624876  84.4912084  22.0919976  90.2413534  83.7024534
  22.6101920  90.9774561  83.3771023  21.7375108  90.5477527  84.5371293
  22.3432570  86.6613817  79.2225431  22.6234324  85.9937006  79.8485857
  23.1283177  86.8542912  78.7100095  26.2141428  95.0831451  82.9697006
  27.1658851  95.1829548  82.9909230  26.0444879  94.2909719  83.4795090
  24.2355808  92.1687034  83.1556407  23.6405740  92.4492047  82.4602895
  23.9505504  92.6580935  83.9273148  28.6929506  98.3037570  82.0839306
  28.6605826  97.3653571  82.2698989  29.3030130  98.3821607  81.3505130
  28.8423995  95.0948614  82.1297589  28.3263043  94.3107070  81.9427518
  29.7263943  94.7667330  82.2944108  26.5034721  88.8389629  78.0893401
  26.3059543  88.5304718  78.9736733  27.1134427  89.5651268  78.2191331
  34.5106056  99.3653577  81.2245342  35.2409444  99.1038865  81.7853046
  33.9013001  98.6282299  81.2647410  32.5921353  97.5061440  81.8219794
  31.8654517  97.3717405  81.2136285  32.1768640  97.8138268  82.6276512
  18.7155754  95.0983600  68.0621395  17.8087209  94.8016712  68.1384108
  18.9931735  94.8013418  67.1955681  20.3317820  89.6420489  74.2165636
  19.5218548  89.2967574  74.5920882  21.0202237  89.3328033  74.8053248
  22.2608368  88.7198536  75.8389933  22.8139407  89.1393990  76.4979956
  22.4978454  87.7934284  75.8812889  17.4854539  91.9570535  68.2033374
  18.3473703  92.2825433  68.4629191  17.6704883  91.1702031  67.6906440
  25.6387175  90.8299061  75.3468597  25.0585844  91.4883865  74.9646649
  25.3723108  90.0076406  74.9356015  24.0890742  90.2304119  77.5489917
  24.5890520  90.3420654  76.7404236  24.7326349  89.9265172  78.1890726
  24.4212053  92.9899152  74.4024945  23.5337908  93.2748802  74.1845140
  24.8366042  92.8292915  73.5552222  27.7726589  93.0145673  78.1179285
  28.5486979  93.5042125  78.3903901  27.0474723  93.4403727  78.5751154
  30.2099148  93.7273292  79.1753225  30.8043639  93.4869028  78.4646533
  30.2825732  93.0080423  79.8026761  28.2057883  94.2943420  75.4425355
  27.9494817  93.8940055  76.2733563  27.5810751  95.0087214  75.3175494
  32.5170221  97.0339493  77.9496646  31.9569779  97.1032682  78.7228208
  31.9113724  96.8580477  77.2296143  18.4383982  89.1966578  71.4913083
  18.4262651  90.1408418  71.6481354  19.3307404  89.0136723  71.1972544
  22.2536101  85.7909355  75.7459020  21.4868497  85.2367841  75.8915702
  22.6646806  85.8631223  76.6073171   1.5818379  30.2264337  65.2170405
   0.8282087  29.6571735  65.0614409   1.7165920  30.1927001  66.1641039
   1.9924794  30.3839947  67.9490649   2.7228182  30.1225235  68.5098352
   1.3831739  29.6468669  67.9892717   1.5844977  44.7282376  67.3671909
   2.2223387  44.6089124  66.6635249   1.4665820  45.6763220  67.4259861
   1.1386245  42.4533830  64.4425117   1.9249335  42.0353253  64.0915534
   1.4024950  43.3579922  64.6106765   1.3096323  47.8906681  59.1413774
   0.6742156  47.9641307  59.8534678   0.9793729  48.4800279  58.4632853
   6.5394673  42.3909063  65.3458095   7.2719844  41.8208280  65.5795925
   5.7834028  42.0030664  65.7864601   4.0620093  36.1030638  69.8052704
   3.7303418  36.9726048  69.5813919   3.4665706  35.7866922  70.4846734
   3.9548756  40.8225724  66.8846054   3.0465634  40.7541132  66.5904815
   3.9036352  41.2997669  67.7127879   5.8210403  39.0242162  68.6623928
   5.1784783  39.3174695  68.0163722   5.3165331  38.9095082  69.4677125
   3.4750566  42.7705335  59.3509787   4.3868422  43.0032722  59.1757485
   2.9660213  43.3542379  58.7884866   1.7591334  47.1929963  72.9871080
   2.1674690  46.7512374  72.2425712   1.0368595  46.6182591  73.2405273
   2.0820149  47.7531154  66.7423369   1.4529011  47.9176868  66.0399436
   1.6945811  48.1672763  67.5134333   5.9609380  48.6885592  64.0967732
   5.2760419  49.0684493  63.5464766   6.0453230  49.2980918  64.8299680
   1.2621849  39.7906938  72.0185810   1.0182781  40.5448999  71.4820086
   1.5381780  40.1692286  72.8533057   3.2160312  46.3345551  70.6963076
   3.4277207  46.9777310  70.0197457   3.1690060  45.5007867  70.2285006
   4.3306140  49.2117506  68.8685433   5.1523584  48.8097693  68.5868115
   4.3268543  49.1085740  69.8201549  12.4212133  45.5556254  65.2170405
  11.6675841  44.9863653  65.0614409  12.5559674  45.5218919  66.1641039
   1.5360476  51.3296023  73.0506867   1.5178951  52.1504904  72.5587137
   2.4580396  51.2050098  73.2757009   1.1603225  33.9500219  69.4224017
   0.8167494  34.8401860  69.3463128   1.5282187  33.7601876  68.5593602
   6.0987782  46.6941184  59.8649626   5.3217224  46.3552344  59.4204788
   6.7779263  46.6993808  59.1904591   4.3379088  46.1675166  66.5216234
   3.6802763  46.8574427  66.6096363   5.1419488  46.5571598  66.8650220
   3.1484547  44.5219538  64.5720176   3.6616429  45.1549530  65.0741886
   3.7985771  43.9220734  64.2063536   3.9146343  49.5025540  62.6999318
   3.4608671  48.6616450  62.7564509   3.2840310  50.1386938  63.0374099
   2.8579263  40.4317526  63.9299986   2.1202020  39.9194912  64.2610228
   3.1106037  39.9917907  63.1183263   2.3579283  51.3402037  63.6349137
   2.6502257  51.9007094  62.9161502   2.8677903  51.6330598  64.3902296
   2.9590890  33.2093778  64.5241755   3.2649767  32.3491141  64.2367670
   3.6843495  33.8011398  64.3240749   0.7678542  42.5866455  71.6223219
   1.1227929  42.8137928  72.4817685   1.4150673  42.9184832  71.0000474
   6.4976279  45.7084891  62.3272548   6.3594177  45.8986487  61.3993737
   6.1412497  46.4704274  62.7840599   6.5245658  47.7761418  67.3383820
   6.9582165  47.6836707  68.1866874   7.2377239  47.7518919  66.7003836
   7.3861208  47.8185119  69.8716705   7.5797098  48.7230929  70.1175980
   7.2861826  47.3592538  70.7055290   2.4476316  47.9691861  75.4457586
   2.2961823  47.7402413  74.5287669   2.4380996  48.9262463  75.4588931
   2.5014391  46.2912076  55.8628287   1.8843562  45.5658904  55.7661340
   2.0330880  47.0521436  55.5195361   4.1568523  51.0010984  73.5234067
   4.0981069  50.3170204  72.8564650   4.5588041  51.7429974  73.0714693
   4.1585930  48.9650568  71.7548047   3.2712709  48.6276490  71.8774446
   4.7284481  48.2333599  71.9916812   8.6403271  44.3758785  66.5164609
   8.6293147  45.2583501  66.1458542   7.7720650  44.0230336  66.3219146
   1.8703294  47.4290107  62.4484741   0.9359573  47.5491569  62.2789445
   2.0479963  46.5262574  62.1844750   5.2575846  43.2707426  62.9834775
   5.7236298  44.1035418  62.9095077   5.7083346  42.8052408  63.6880033
   3.3252077  49.6151248  59.9820927   3.6011921  49.5007842  60.8914801
   2.4556575  49.2168732  59.9433100   3.2292508  35.6388013  67.0225676
   2.3155588  35.8692240  67.1907883   3.6585610  35.7226457  67.8739708
   2.9998967  43.8277905  69.5225570   2.3470417  44.0753813  68.8678023
   3.3779347  43.0142043  69.1888047   2.6420197  50.7025901  76.0997878
   3.1860101  51.3155860  75.6052832   2.0607042  51.2605480  76.6164891
   0.9277710  53.8246619  67.2312905   0.8028849  53.0236359  66.7223851
   1.5856801  54.3192813  66.7426875   2.9912618  51.6255639  68.8592455
   2.0442954  51.5060991  68.7870782   3.3395391  50.7378137  68.9418717
   3.5993174  52.2436914  66.1461680   4.5239721  52.0379776  66.0086132
   3.4308477  51.9953315  67.0551022   3.3888490  52.7622582  61.5023772
   3.5625367  52.1969004  60.7497624   3.8817381  53.5623477  61.3203262
   9.2427881  45.5259005  63.1214072   9.6859027  44.7766330  62.7233195
   8.3654391  45.5169141  62.7387804   4.3763662  52.0789346  58.6020670
   5.0714567  52.6996039  58.8207985   4.7186812  51.2284697  58.8773048
   6.2755085  49.5289052  60.1308001   6.8006409  49.8676324  59.4057321
   6.1877438  48.5936067  59.9471136   5.9648991  50.1621955  75.4359199
   5.1744535  50.1446094  74.8963698   5.7282346  50.7010249  76.1908235
   6.0846866  47.0114422  72.7491927   6.1344871  46.8464429  73.6907450
   5.9760790  46.1441681  72.3589808   3.3750629  42.9945350  74.0651234
   4.2760492  42.8551815  73.7735232   3.4498603  43.1599805  75.0049412
   7.5865063  49.4311363  72.9933949   7.2949872  49.7941344  73.8297410
   6.9737195  48.7178372  72.8147281   8.7860746  46.9964243  65.5136519
   9.6207637  47.4354047  65.6774080   8.9219874  46.5202896  64.6944765
   5.8352252  44.5543978  71.4614007   6.3106373  44.7471624  70.6532858
   4.9117817  44.6103164  71.2157391   0.6645062  33.0092104  65.9470737
   0.9446816  32.3415293  66.5731164   1.4495669  33.2021200  65.4345401
   4.5353921  41.4309738  69.6942313   5.4871343  41.5307836  69.7154537
   4.3657371  40.6388006  70.2040397   2.5568300  38.5165321  69.8801713
   1.9618232  38.7970334  69.1848202   2.2717997  39.0059222  70.6518455
   1.6875790  52.4688248  58.6404346   2.6206464  52.4033810  58.8437222
   1.5999003  53.3044515  58.1818879   4.3163807  51.7854118  55.6008294
   4.2377439  51.4513982  56.4944052   5.1373474  52.2775886  55.5999766
   7.0141998  44.6515858  68.8084612   6.9818318  43.7131858  68.9944296
   7.6242622  44.7299894  68.0750437   7.1636487  41.4426901  68.8542895
   6.6475535  40.6585358  68.6672824   8.0476435  41.1145618  69.0189415
   4.8247214  35.1867917  64.8138708   4.6272035  34.8783005  65.6982040
   5.4346919  35.9129556  64.9436638  12.8318548  45.7131864  67.9490649
  13.5621937  45.4517153  68.5098352  12.2225494  44.9760586  67.9892717
  10.9133845  43.8539727  68.5465100  10.1867009  43.7195692  67.9381592
  10.4981132  44.1616556  69.3521818   3.9599667  37.1777349  62.0713904
   3.3798336  37.8362153  61.6891956   3.6935600  36.3554693  61.6601321
   2.4103234  36.5782406  64.2735224   2.9103012  36.6898941  63.4649543
   3.0538842  36.2743459  64.9136032   2.7424545  39.3377439  61.1270252
   1.8550400  39.6227090  60.9090447   3.1578535  39.1771202  60.2797529
   6.0939082  39.3623960  64.8424591   6.8699472  39.8520412  65.1149208
   5.3687216  39.7882014  65.2996461   8.5311640  40.0751579  65.8998532
   9.1256131  39.8347315  65.1891840   8.6038224  39.3558710  66.5272068
   1.8867759  49.1022114  55.2218272   2.5903609  49.3072116  55.8375928
   1.1630408  49.6698876  55.4867355   2.7165569  44.8531975  61.3420542
   2.6600771  45.3100526  60.5028174   3.2693912  44.0922660  61.1643385
   6.5270375  40.6421707  62.1670662   6.2707309  40.2418343  62.9978869
   5.9023243  41.3565501  62.0420801  10.8382713  43.3817780  64.6741953
  10.2782271  43.4510969  65.4473515  10.2326216  43.2058765  63.9541449
   3.7954456  49.5404643  57.2716732   4.6300060  49.1085841  57.0894207
   3.6338799  49.3686657  58.1993626   3.4500348  46.0436756  58.6373071
   3.3949152  45.8781028  57.6961515   2.8246404  46.7512789  58.7935261
  12.4238731  60.0574294  67.3671909  13.0617141  59.9381041  66.6635249
  12.3059574  61.0055138  67.4259861   9.2328438  60.0101722  67.3033433
   8.8946949  59.8942787  66.4153968  10.1018206  59.6092887  67.2834440
   5.0915253  61.8637199  63.2930324   4.5280119  61.7727135  62.5246612
   4.9767648  61.0437103  63.7732817   9.7148221  61.1636574  73.2619639
   9.7036861  60.7689372  72.3900143   9.8768860  60.4302646  73.8553410
   2.6379685  63.3588390  66.1314545   3.4300977  63.0179215  65.7160844
   2.8776335  63.4683365  67.0516698  10.6714812  65.5308166  58.6044789
  10.0202792  66.1162247  58.2178803  11.4659175  66.0614361  58.6639827
   4.5970439  62.6197303  59.0031924   5.3701315  62.0726290  58.8644799
   4.9495838  63.4841553  59.2146385   6.4355482  63.9473686  72.2098823
   6.1445348  64.8519317  72.0945489   7.0712466  63.9890213  72.9242892
   7.3611689  61.3250534  68.8000183   7.9575261  61.1006557  68.0857145
   7.4186660  60.5835280  69.4025630   6.9336717  58.7789970  56.6350374
   7.1862238  58.2571491  55.8733837   5.9961276  58.6156115  56.7377057
  11.9780000  57.7825748  64.4425117  12.7643089  57.3645171  64.0915534
  12.2418704  58.6871840  64.6106765  12.1490077  63.2198598  59.1413774
  11.5135910  63.2933225  59.8534678  11.8187484  63.8092197  58.4632853
  17.3788427  57.7200981  65.3458095  18.1113599  57.1500198  65.5795925
  16.6227783  57.3322582  65.7864601   6.6533006  60.6818075  58.8374748
   6.5369264  60.0062979  59.5055833   6.7635266  60.1950449  58.0206902
   8.9964547  60.1428223  62.5421438   8.6322754  59.6158844  63.2534359
   9.8531663  59.7526692  62.3687923  14.9013847  51.4322555  69.8052704
  14.5697172  52.3017966  69.5813919  14.3059461  51.1158839  70.4846734
   8.6370034  55.1718122  57.5382786   8.8044436  56.0398359  57.9053257
   8.4467203  55.3345404  56.6144075  11.3945367  63.6335101  69.2048617
  11.0946090  64.5360140  69.0964424  11.0496426  63.3667284  70.0569769
   4.8457848  60.0848898  65.2385321   3.9208345  59.9525112  65.4463013
   5.0942262  60.8643117  65.7355263  14.7942511  56.1517641  66.8846054
  13.8859388  56.0833050  66.5904815  14.7430106  56.6289586  67.7127879
   8.6159255  57.6275780  58.5229453   8.4958880  58.0732831  59.3614933
   7.9211843  57.9761097  57.9642991   2.2066659  59.7282172  66.0729110
   2.3359041  59.9816650  66.9868522   1.5264111  60.3209880  65.7533765
   6.3766147  70.3979422  62.1719584   6.2990176  71.3487247  62.2508065
   5.7727790  70.0525294  62.8294511   8.8683376  57.5707287  74.8280951
   8.0916711  58.1301207  74.8183816   9.5073940  58.0564070  75.3495821
  16.6604157  54.3534080  68.6623928  16.0178537  54.6466613  68.0163722
  16.1559086  54.2387000  69.4677125  14.3144321  58.0997253  59.3509787
  15.2262177  58.3324640  59.1757485  13.8053968  58.6834297  58.7884866
   7.1229749  60.3792740  74.3898918   7.8644433  60.9177784  74.1133742
   6.4166734  61.0059029  74.5470470  12.5985088  62.5221881  72.9871080
  13.0068444  62.0804291  72.2425712  11.8762350  61.9474508  73.2405273
   8.9516158  57.4594488  70.3604637   9.7977354  57.8833901  70.5039286
   8.8914796  56.8028112  71.0543200  12.9213903  63.0823071  66.7423369
  12.2922765  63.2468786  66.0399436  12.5339565  63.4964681  67.5134333
  16.8003135  64.0177509  64.0967732  16.1154173  64.3976411  63.5464766
  16.8846984  64.6272836  64.8299680  12.1015604  55.1198856  72.0185810
  11.8576536  55.8740916  71.4820086  12.3775534  55.4984204  72.8533057
  14.0554067  61.6637468  70.6963076  14.2670962  62.3069228  70.0197457
  14.0083815  60.8299785  70.2285006  11.6580296  54.2755289  67.5999648
  10.7964775  54.5736542  67.8916386  11.6842730  54.4925688  66.6680681
   8.4741865  62.8197479  64.0073454   8.9380210  63.0985182  63.2178076
   8.2098663  61.9180924  63.8246544   5.3665946  62.3668961  66.9453217
   5.9367303  62.7956229  66.3070701   5.9574058  62.0851546  67.6437403
   7.4110751  58.9420632  60.8163019   8.1134794  59.3941676  61.2836945
   7.0791379  58.3004451  61.4442912   5.8591113  57.5332388  75.1914228
   5.2289773  58.2148669  75.4249625   5.7527200  57.4215470  74.2467366
  15.1699895  64.5409424  68.8685433  15.9917338  64.1389611  68.5868115
  15.1662297  64.4377658  69.8201549   3.1050830  57.5648764  63.0763629
   2.3081994  57.6767458  63.5947125   2.8776423  57.9035416  62.2104520
   8.9356498  64.0893467  71.0246144   9.0000930  64.5513874  71.8604316
   8.2267422  63.4590832  71.1528454  23.2605888  60.8848172  65.2170405
  22.5069596  60.3155570  65.0614409  23.3953429  60.8510837  66.1641039
   8.6504516  65.7561574  60.8925124   8.5150190  66.6013110  61.3209972
   9.1914328  65.9580852  60.1291058   5.1371855  51.8353154  77.5539479
   4.7438801  51.2819353  78.2287123   5.9537996  52.1463733  77.9445997
   2.1033913  63.2737013  61.4653049   2.6158434  64.0680263  61.6158614
   2.7556626  62.5763303  61.3986651   3.9128798  66.3902769  63.5475802
   4.0895426  67.3120733  63.3596786   4.7085631  66.0761188  63.9770182
   8.0539816  53.2511033  75.1459736   8.7949530  53.8518187  75.0664198
   8.2857739  52.5088671  74.5877778   3.1981154  58.4367401  73.4237965
   3.0834669  57.5352658  73.7245064   2.3425672  58.6831097  73.0722782
  10.2772992  66.3785141  75.0225466   9.8336846  65.5921520  74.7046371
  10.9390206  66.5664291  74.3569357   5.0360113  67.9080943  69.5486145
   5.5867538  67.7798006  68.7763139   4.1971589  68.2075832  69.1981037
  12.3754230  66.6587941  73.0506867  12.3572705  67.4796822  72.5587137
  13.2974150  66.5342016  73.2757009   8.8327284  64.1732070  73.8930376
   9.3655621  63.4120359  73.6629684   8.3041365  63.8805722  74.6354530
  11.9996979  49.2792136  69.4224017  11.6561249  50.1693778  69.3463128
  12.3675942  49.0893794  68.5593602  11.9647262  59.2700747  57.9296453
  11.4493885  60.0405352  58.1684840  11.6924570  58.5965884  58.5529514
   9.5494373  54.1150448  62.9881691   8.6935969  53.7257299  62.8087330
   9.9621325  54.1942409  62.1281477  11.0793520  51.6496792  67.3873251
  10.5758315  51.6126927  66.5741056  11.3724126  52.5589534  67.4469907
   7.3236405  51.7335521  66.3939432   8.1889402  51.5378330  66.0345322
   7.3913914  51.5045873  67.3208789  16.9381536  62.0233102  59.8649626
  16.1610979  61.6844262  59.4204788  17.6173017  62.0285725  59.1904591
  11.7533565  57.1427840  59.7556234  11.4483701  57.4573989  60.6066377
  12.7064007  57.2209259  59.7983567  10.1979997  63.3018063  61.4049188
   9.6701358  62.5670822  61.0922425   9.6967500  64.0792739  61.1589156
  15.1772843  61.4967083  66.5216234  14.5196517  62.1866345  66.6096363
  15.9813242  61.8863515  66.8650220   4.9298725  53.9637729  63.7655799
   5.5042476  53.7412911  63.0328992   5.5169707  54.0326424  64.5184401
  13.9878302  59.8511456  64.5720176  14.5010183  60.4841448  65.0741886
  14.6379526  59.2512652  64.2063536   5.2568312  55.9942190  57.7851685
   4.4205624  56.3316877  58.1060959   5.1173081  55.8591170  56.8478822
   7.2321392  50.8378978  62.4930869   6.5785805  50.5227995  61.8687483
   7.1901866  50.2154719  63.2190692   8.3432597  61.1198273  54.4084161
   7.4359659  60.8887527  54.6075310   8.8403629  60.3235892  54.5958142
  11.2500676  69.8295780  57.3280847  10.5762375  70.1327477  57.9365805
  11.6366498  70.6324861  56.9786304  10.4659133  57.3260912  66.8178516
   9.5481694  57.5475859  66.6600204  10.8819276  57.4007222  65.9590224
  11.2494180  58.7252327  61.9481197  11.9965999  59.2373725  61.6388319
  11.5185770  58.4036380  62.8085590   9.5220831  61.2210868  58.9308151
   8.6132050  60.9369901  59.0280621   9.5515914  61.6409947  58.0711458
  14.7540098  64.8317458  62.6999318  14.3002425  63.9908367  62.7564509
  14.1234065  65.4678856  63.0374099  13.6973018  55.7609444  63.9299986
  12.9595774  55.2486830  64.2610228  13.9499791  55.3209825  63.1183263
  13.1973037  66.6693954  63.6349137  13.4896012  67.2299011  62.9161502
  13.7071658  66.9622515  64.3902296  13.7984645  48.5385696  64.5241755
  14.1043522  47.6783059  64.2367670  14.5237250  49.1303316  64.3240749
   8.0705725  58.8339489  65.0317946   8.1254334  57.8813325  64.9560423
   7.2596927  58.9898928  65.5159245   9.2196918  62.7619612  56.2696229
   8.7816348  62.0455471  55.8101867   9.9607359  62.9895727  55.7081321
   6.0098084  57.4516548  62.7908325   5.1965950  57.7510719  63.1973517
   6.5057079  57.0572237  63.5082807   8.1606662  67.4474305  64.7242590
   8.1182841  67.6735152  63.7951122   9.0769361  67.2137680  64.8728391
  11.6072296  57.9158373  71.6223219  11.9621684  58.1429846  72.4817685
  12.2544427  58.2476750  71.0000474  17.3370033  61.0376809  62.3272548
  17.1987932  61.2278405  61.3993737  16.9806252  61.7996192  62.7840599
   5.5012159  55.0234904  68.4069560   6.1411539  54.8823663  67.7092523
   4.6689690  54.7369417  68.0308162  17.3639413  63.1053336  67.3383820
  17.7975919  63.0128625  68.1866874  18.0770993  63.0810836  66.7003836
   6.2772463  64.3237334  64.5204553   7.0713062  63.8287654  64.3187127
   5.5664156  63.7955197  64.1572258  11.0967308  66.7055430  68.8716920
  11.1504330  67.2746366  69.6394636  10.2282089  66.8757315  68.5070957
   2.5855227  58.4680416  60.5964305   1.6552815  58.4064872  60.8134267
   2.6812699  57.9456369  59.8000946   2.5040776  54.9935229  63.1842547
   2.7647593  55.9080562  63.0751707   3.3257948  54.5259671  63.3339160
   3.9765701  56.4072986  70.3541371   4.6488754  56.1990348  69.7054020
   3.1495488  56.2095072  69.9146604  18.2254962  63.1477036  69.8716705
  18.4190852  64.0522847  70.1175980  18.1255580  62.6884455  70.7055290
   9.8791273  53.0334927  72.3707032   9.2319188  53.7324877  72.2771509
  10.6492288  53.4671071  72.7383280  13.2870071  63.2983779  75.4457586
  13.1355577  63.0694331  74.5287669  13.2774750  64.2554381  75.4588931
  10.0555407  60.8715692  70.4303852  10.9847467  61.0226851  70.2572819
   9.6346437  60.9599713  69.5752499   8.8543739  64.8966356  68.2002390
   8.7154825  64.5285141  69.0728328   8.0658335  65.4113996  68.0286347
   9.4491891  69.9975453  59.5427926   9.6243647  69.5263496  60.3573549
   8.7624679  70.6241219  59.7709187  10.4048954  64.2747959  65.5891227
  10.0698787  64.2348729  66.4848877   9.9052900  63.6092675  65.1161638
   4.3793198  59.6815589  71.1143809   4.2412996  58.9495828  71.7155348
   5.2898122  59.5924489  70.8327996  13.3408146  61.6203993  55.8628287
  12.7237317  60.8950821  55.7661340  12.8724634  62.3813354  55.5195361
   7.0075499  59.3935548  70.6027488   7.7175117  58.7528741  70.5614107
   6.9644807  59.6448443  71.5253669  14.9962278  66.3302902  73.5234067
  14.9374824  65.6462122  72.8564650  15.3981796  67.0721892  73.0714693
   5.7204433  56.3800766  72.4223128   5.1841790  55.9291505  73.0744724
   5.1321141  56.5146675  71.6793592   4.0152976  73.1464816  66.3167786
   4.2549575  73.7783340  66.9946805   3.1722173  72.7952856  66.6033146
   5.1306692  55.8389418  54.9849591   4.2536158  55.7178218  54.6211838
   5.6064445  55.0475496  54.7328480  14.9979685  64.2942486  71.7548047
  14.1106464  63.9568407  71.8774446  15.5678236  63.5625517  71.9916812
   1.4543554  55.5156774  69.5076122   1.3701743  54.9082443  68.7726532
   0.6326261  56.0065792  69.5085619   8.5280838  68.9543938  68.7209290
   8.4551010  69.7598909  69.2328595   8.0858231  69.1535904  67.8957312
   8.3170618  68.1915708  62.2312112   7.5338140  68.7337388  62.3250336
   9.0163363  68.7089688  62.6306353  11.6267268  54.0010337  64.8746317
  12.1235968  53.2480300  64.5547387  10.8554250  54.0374654  64.3089527
  19.4797025  59.7050703  66.5164609  19.4686902  60.5875418  66.1458542
  18.6114405  59.3522254  66.3219146  10.9879522  68.8530772  70.8767449
  11.7007494  69.4878237  70.8043350  10.4969550  68.9494638  70.0607451
  12.7097049  62.7582025  62.4484741  11.7753327  62.8783487  62.2789445
  12.8873717  61.8554491  62.1844750   8.2102237  56.1427720  64.6018002
   7.8400024  55.5898761  65.2898907   8.7061329  55.5385854  64.0493002
  16.0969600  58.5999344  62.9834775  16.5630052  59.4327336  62.9095077
  16.5477101  58.1344326  63.6880033   6.0391435  66.6025215  71.6973020
   6.7400895  67.2361698  71.8502414   5.5686550  66.9439947  70.9368659
  14.1645831  64.9443165  59.9820927  14.4405675  64.8299760  60.8914801
  13.2950330  64.5460650  59.9433100  14.0686263  50.9679931  67.0225676
  13.1549343  51.1984158  67.1907883  14.4979364  51.0518375  67.8739708
  13.8392721  59.1569823  69.5225570  13.1864172  59.4045730  68.8678023
  14.2173101  58.3433961  69.1888047  10.7999895  69.1929516  63.6253740
  10.9822290  68.3751172  64.0881493  11.6232881  69.4097208  63.1878630
  11.1342061  68.1197701  60.8868789  11.6629827  67.6090156  60.2738951
  11.3970280  67.8040231  61.7514322   9.8880294  59.8989634  76.0091607
   9.2120931  59.7983763  76.6793982  10.7107928  59.7428848  76.4727604
   1.6359153  66.1361571  68.6304122   2.2212590  65.3905258  68.7632027
   1.4383992  66.4465527  69.5140786   4.4897809  69.1712818  63.6466565
   3.8208184  69.6558946  63.1630605   4.3510678  69.4182038  64.5609943
   8.6303077  71.2056561  70.2449223   9.1821385  71.3688183  71.0098308
   8.9709271  71.7960999  69.5729248   3.6067570  53.5531711  70.8471108
   3.6708897  54.4146542  70.4348506   3.5434691  52.9405713  70.1143466
   3.0819843  55.6254844  74.4944142   3.7091882  55.2431921  75.1081666
   2.2247762  55.4069046  74.8599835  13.4813952  66.0317819  76.0997878
  14.0253855  66.6447777  75.6052832  12.9000796  66.5897397  76.6164891
  11.7671464  69.1538537  67.2312905  11.6422604  68.3528277  66.7223851
  12.4250556  69.6484730  66.7426875   3.3879633  55.5087269  66.4090046
   2.6666218  56.1223237  66.2697519   4.1772888  56.0445034  66.3306692
  13.8306373  66.9547557  68.8592455  12.8836708  66.8352908  68.7870782
  14.1789146  66.0670055  68.9418717   6.1905946  52.8441696  72.6830697
   6.7140348  53.0903992  73.4457007   5.9718279  53.6761731  72.2633835
   1.5873227  55.1145371  60.5501822   1.2585933  54.2342749  60.3676928
   1.9412598  55.0593039  61.4378211  10.8352806  66.7500273  65.0596808
  10.6877769  65.8216981  65.2404378  11.6606300  66.7720364  64.5753883
   4.7015050  55.4018340  60.9177300   5.0411123  55.9304262  60.1955908
   5.1487171  55.7398746  61.6935866  14.4386928  67.5728832  66.1461680
  15.3633475  67.3671693  66.0086132  14.2702231  67.3245233  67.0551022
   7.3958491  53.7855391  70.3680368   7.0555312  52.9863204  70.7701048
   6.6897498  54.0857102  69.7957201   8.0474963  50.8704703  68.8207691
   8.8701032  50.3965182  68.6986581   8.2913027  51.6495187  69.3206377
   6.6883198  53.8992962  59.1170593   7.4091560  54.2774215  58.6134309
   6.0648502  54.6181839  59.2205571  10.8314320  54.6038111  60.0528925
  11.0477935  55.4862749  59.7517753  10.3508388  54.2124324  59.3234567
   5.5713542  57.5623824  66.6299670   5.4258123  57.8764127  67.5223951
   5.0938745  58.1808724  66.0770568   7.4309925  54.5526372  66.6780559
   7.4171493  53.6567465  66.3412857   8.1482353  54.5597036  67.3118845
   9.2836055  54.9863712  68.7233686   9.0253833  55.9080783  68.7218017
   8.7521096  54.5894147  69.4134151  14.2282244  68.0914499  61.5023772
  14.4019122  67.5260922  60.7497624  14.7211135  68.8915394  61.3203262
   6.8346821  53.4340752  61.9468129   6.9562732  52.5057399  62.1459017
   6.5448863  53.4479438  61.0346445   9.7038011  51.1195663  65.0834849
   9.7259708  51.1834996  64.1286829  10.1206070  50.2800171  65.2775355
  20.0821635  60.8550922  63.1214072  20.5252781  60.1058248  62.7233195
  19.2048146  60.8461059  62.7387804  15.2157417  67.4081264  58.6020670
  15.9108321  68.0287957  58.8207985  15.5580567  66.5576615  58.8773048
  17.1148840  64.8580969  60.1308001  17.6400164  65.1968242  59.4057321
  17.0271192  63.9227985  59.9471136   8.7768889  68.7715043  72.2597878
   9.0856015  68.5264190  73.1320577   9.5744371  68.9761681  71.7716748
   8.7989501  70.9252953  64.4903254   8.3594491  70.4329331  65.1836111
   9.5497618  70.3825920  64.2495329   1.2781840  67.1164493  64.4927882
   2.1039859  66.8168265  64.1126526   0.9275892  66.3472116  64.9417671
   6.2463373  66.4690962  66.5625556   5.6243382  65.8061667  66.2627784
   6.9168240  66.4952094  65.8799204   6.3187900  54.9472750  76.1558062
   6.3676056  55.8234873  75.7735831   6.8610414  54.4050143  75.5829705
  16.8042746  65.4913873  75.4359199  16.0138290  65.4738012  74.8963698
  16.5676100  66.0302167  76.1908235  16.9240621  62.3406339  72.7491927
  16.9738626  62.1756347  73.6907450  16.8154544  61.4733598  72.3589808
   5.8076880  65.0194885  60.0384016   5.9565000  65.7030349  59.3850689
   6.6143323  64.9999975  60.5533472  14.2144383  58.3237267  74.0651234
  15.1154246  58.1843732  73.7735232  14.2892358  58.4891722  75.0049412
   8.5487189  55.7004122  72.9104420   7.6790498  55.9937688  72.6387009
   8.7846669  56.2844567  73.6311684  18.4258818  64.7603281  72.9933949
  18.1343626  65.1233261  73.8297410  17.8130949  64.0470289  72.8147281
  19.6254500  62.3256161  65.5136519  20.4601391  62.7645965  65.6774080
  19.7613629  61.8494814  64.6944765  16.6746006  59.8835896  71.4614007
  17.1500128  60.0763542  70.6532858  15.7511571  59.9395081  71.2157391
   3.5629513  61.0460063  61.0445085   3.3175555  60.1422393  61.2425295
   3.7325427  61.0477213  60.1024563  11.2526222  51.9183739  70.4269841
  11.7708166  52.6544766  70.1016329  10.8981355  52.2247732  71.2616600
   2.8325160  56.7788420  58.5431247   2.1394405  56.8532775  57.8871283
   2.5876912  56.0148764  59.0652764  11.5038817  48.3384022  65.9470737
  11.7840570  47.6707211  66.5731164  12.2889424  48.5313117  65.4345401
   9.3072285  67.5143016  57.5095764   8.7346252  68.1333203  57.0566236
   9.8805079  68.0642377  58.0435686  15.3747675  56.7601656  69.6942313
  16.3265098  56.8599753  69.7154537  15.2051125  55.9679924  70.2040397
  13.3962054  53.8457239  69.8801713  12.8011987  54.1262252  69.1848202
  13.1111751  54.3351140  70.6518455  12.5269545  67.7980166  58.6404346
  13.4600218  67.7325727  58.8437222  12.4392758  68.6336432  58.1818879
  15.1557562  67.1146036  55.6008294  15.0771193  66.7805900  56.4944052
  15.9767228  67.6067804  55.5999766  17.8535753  59.9807775  68.8084612
  17.8212073  59.0423776  68.9944296  18.4636376  60.0591812  68.0750437
   9.6919084  58.8503828  54.8511816  10.6378188  58.7210036  54.9200234
   9.3133329  58.1118490  55.3281244  18.0030241  56.7718819  68.8542895
  17.4869290  55.9877275  68.6672824  18.8870190  56.4437535  69.0189415
  15.6640968  50.5159834  64.8138708  15.4665789  50.2074922  65.6982040
  16.2740674  51.2421473  64.9436638  23.6712303  61.0423782  67.9490649
  24.4015691  60.7809070  68.5098352  23.0619248  60.3052504  67.9892717
  21.7527600  59.1831645  68.5465100  21.0260763  59.0487610  67.9381592
  21.3374887  59.4908473  69.3521818   9.5757776  62.9021574  76.3112473
  10.4960786  63.0800173  76.5052520   9.5407359  61.9577620  76.1592172
   7.8762001  56.7753805  54.7866701   6.9693456  56.4786917  54.8629415
   8.1537982  56.4783623  53.9200988   2.5719849  60.8122609  68.9535254
   2.7905859  61.7439717  68.9723288   2.9845623  60.4530583  69.7390058
   9.4924067  51.3190694  60.9410943   8.6824795  50.9737779  61.3166189
  10.1808483  51.0098238  61.5298554  11.4214615  50.3968741  62.5635239
  11.9745653  50.8164195  63.2225263  11.6584701  49.4704489  62.6058195
   7.4447714  56.3855815  78.3438003   7.3444441  57.3350172  78.2750094
   7.2269256  56.0574054  77.4714073   6.6460785  53.6340740  54.9278681
   7.5079949  53.9595638  55.1874498   6.8311130  52.8472236  54.4151746
  14.7993422  52.5069266  62.0713904  14.2192091  53.1654070  61.6891956
  14.5329355  51.6846611  61.6601321  13.2496988  51.9074324  64.2735224
  13.7496767  52.0190859  63.4649543  13.8932596  51.6035377  64.9136032
   7.3078984  59.8152954  77.1603065   6.8246066  60.6153314  77.3666954
   7.3939923  59.8260899  76.2070509   3.2352322  63.7057488  69.1971499
   4.1895575  63.6741431  69.1301430   3.0364845  63.2448112  70.0121725
   3.8251704  62.2758604  71.7642296   4.6444593  62.7702683  71.7877134
   4.0988511  61.3590573  71.7359864  13.5818300  54.6669357  61.1270252
  12.6944155  54.9519007  60.9090447  13.9972289  54.5063120  60.2797529
  16.9332836  54.6915878  64.8424591  17.7093226  55.1812330  65.1149208
  16.2080970  55.1173932  65.2996461  19.3705395  55.4043497  65.8998532
  19.9649885  55.1639233  65.1891840  19.4431978  54.6850627  66.5272068
   1.5902550  69.2477108  66.2141697   1.4557018  68.4877509  65.6479695
   1.1734613  69.9718008  65.7470485  12.7261513  64.4314031  55.2218272
  13.4297364  64.6364034  55.8375928  12.0024162  64.9990793  55.4867355
  13.5559324  60.1823893  61.3420542  13.4994525  60.6392444  60.5028174
  14.1087666  59.4214577  61.1643385  17.3664130  55.9713625  62.1670662
  17.1101064  55.5710260  62.9978869  16.7416998  56.6857418  62.0420801
  21.6776467  58.7109698  64.6741953  21.1176025  58.7802887  65.4473515
  21.0719971  58.5350682  63.9541449   4.7471676  70.1446425  66.4260139
   4.6304060  71.0891857  66.3238830   3.9264123  69.8419986  66.8145938
  14.6348211  64.8696561  57.2716732  15.4693815  64.4377759  57.0894207
  14.4732554  64.6978574  58.1993626  14.2894103  61.3728674  58.6373071
  14.2342907  61.2072945  57.6961515  13.6640158  62.0804707  58.7935261
  11.6040010  63.6777586  77.9626634  12.4731170  63.8518238  77.6013269
  11.1246762  64.4972003  77.8402363   7.5990228  50.8736783  58.2158390
   7.5868898  51.8178623  58.3726661   8.4913650  50.6906928  57.9217851
   5.7726190  70.7974687  69.6416068   6.6753437  70.8298297  69.9582563
   5.5463560  69.8675138  69.6562403   7.5279792  69.5505673  66.3026146
   6.5775423  69.5507535  66.1890519   7.8312279  68.8038408  65.7862181
  11.4142348  47.4679560  62.4704326  10.6474744  46.9138046  62.6161009
  11.8253053  47.5401428  63.3318478   3.4184109  53.7564355  76.5609508
   4.2815571  53.4001160  76.7712832   2.8449520  53.4178250  77.2484912
  23.2632486  75.3866212  67.3671909  23.9010896  75.2672959  66.6635249
  23.1453329  76.3347056  67.4259861  20.0722192  75.3393640  67.3033433
  19.7340704  75.2234705  66.4153968  20.9411960  74.9384805  67.2834440
  15.9309008  77.1929116  63.2930324  15.3673873  77.1019053  62.5246612
  15.8161403  76.3729021  63.7732817  20.5541975  76.4928492  73.2619639
  20.5430616  76.0981290  72.3900143  20.7162615  75.7594564  73.8553410
  13.4773440  78.6880308  66.1314545  14.2694732  78.3471132  65.7160844
  13.7170090  78.7975283  67.0516698  21.5108567  80.8600084  58.6044789
  20.8596546  81.4454164  58.2178803  22.3052929  81.3906279  58.6639827
  15.4364194  77.9489221  59.0031924  16.2095070  77.4018208  58.8644799
  15.7889593  78.8133470  59.2146385  17.2749236  79.2765603  72.2098823
  16.9839102  80.1811234  72.0945489  17.9106221  79.3182131  72.9242892
  18.2005443  76.6542452  68.8000183  18.7969015  76.4298474  68.0857145
  18.2580415  75.9127197  69.4025630  17.7730472  74.1081887  56.6350374
  18.0255992  73.5863408  55.8733837  16.8355031  73.9448033  56.7377057
  22.8173754  73.1117666  64.4425117  23.6036844  72.6937089  64.0915534
  23.0812459  74.0163758  64.6106765  22.9883832  78.5490516  59.1413774
  22.3529665  78.6225142  59.8534678  22.6581238  79.1384115  58.4632853
  28.2182182  73.0492899  65.3458095  28.9507353  72.4792116  65.5795925
  27.4621537  72.6614499  65.7864601  17.4926760  76.0109993  58.8374748
  17.3763018  75.3354897  59.5055833  17.6029020  75.5242367  58.0206902
  19.8358301  75.4720140  62.5421438  19.4716508  74.9450761  63.2534359
  20.6925417  75.0818609  62.3687923  25.7407602  66.7614473  69.8052704
  25.4090927  67.6309884  69.5813919  25.1453215  66.4450757  70.4846734
  19.4763788  70.5010040  57.5382786  19.6438191  71.3690276  57.9053257
  19.2860957  70.6637322  56.6144075  22.2339121  78.9627019  69.2048617
  21.9339844  79.8652058  69.0964424  21.8890181  78.6959202  70.0569769
  15.6851603  75.4140816  65.2385321  14.7602099  75.2817030  65.4463013
  15.9336016  76.1935035  65.7355263  25.6336265  71.4809559  66.8846054
  24.7253143  71.4124967  66.5904815  25.5823861  71.9581504  67.7127879
  19.4553009  72.9567697  58.5229453  19.3352634  73.4024748  59.3614933
  18.7605597  73.3053015  57.9642991  13.0460414  75.0574089  66.0729110
  13.1752795  75.3108568  66.9868522  12.3657865  75.6501797  65.7533765
  17.2159901  85.7271339  62.1719584  17.1383931  86.6779164  62.2508065
  16.6121545  85.3817212  62.8294511  19.7077131  72.8999205  74.8280951
  18.9310465  73.4593125  74.8183816  20.3467694  73.3855988  75.3495821
  27.4997912  69.6825997  68.6623928  26.8572292  69.9758531  68.0163722
  26.9952840  69.5678918  69.4677125  25.1538075  73.4289171  59.3509787
  26.0655931  73.6616557  59.1757485  24.6447722  74.0126215  58.7884866
  17.9623503  75.7084658  74.3898918  18.7038188  76.2469702  74.1133742
  17.2560489  76.3350947  74.5470470  23.4378843  77.8513798  72.9871080
  23.8462199  77.4096209  72.2425712  22.7156104  77.2766426  73.2405273
  19.7909913  72.7886405  70.3604637  20.6371108  73.2125819  70.5039286
  19.7308551  72.1320030  71.0543200  23.7607658  78.4114989  66.7423369
  23.1316520  78.5760703  66.0399436  23.3733320  78.8256599  67.5134333
  27.6396889  79.3469427  64.0967732  26.9547928  79.7268328  63.5464766
  27.7240739  79.9564754  64.8299680  22.9409358  70.4490774  72.0185810
  22.6970290  71.2032834  71.4820086  23.2169289  70.8276121  72.8533057
  24.8947821  76.9929386  70.6963076  25.1064716  77.6361146  70.0197457
  24.8477569  76.1591703  70.2285006  22.4974050  69.6047207  67.5999648
  21.6358529  69.9028460  67.8916386  22.5236485  69.8217605  66.6680681
  19.3135619  78.1489397  64.0073454  19.7773965  78.4277100  63.2178076
  19.0492418  77.2472842  63.8246544  16.2059700  77.6960879  66.9453217
  16.7761058  78.1248147  66.3070701  16.7967812  77.4143463  67.6437403
  18.2504505  74.2712550  60.8163019  18.9528549  74.7233593  61.2836945
  17.9185134  73.6296368  61.4442912  16.6984867  72.8624306  75.1914228
  16.0683528  73.5440587  75.4249625  16.5920955  72.7507388  74.2467366
  11.9929839  72.5296102  66.1180152  11.2028893  72.7853631  65.6420263
  12.4841087  73.3444440  66.2232193  26.0093649  79.8701341  68.8685433
  26.8311093  79.4681529  68.5868115  26.0056052  79.7669576  69.8201549
  13.9444585  72.8940681  63.0763629  13.1475748  73.0059376  63.5947125
  13.7170177  73.2327334  62.2104520  19.7750252  79.4185385  71.0246144
  19.8394685  79.8805792  71.8604316  19.0661176  78.7882750  71.1528454
  10.2767542  72.7826593  68.5495143  10.5275581  73.6673603  68.8152719
  10.8127091  72.6031194  67.7770235  34.0999642  76.2140090  65.2170405
  33.3463350  75.6447488  65.0614409  34.2347183  76.1802754  66.1641039
  19.4898270  81.0853492  60.8925124  19.3543945  81.9305028  61.3209972
  20.0308083  81.2872770  60.1291058  15.9765610  67.1645072  77.5539479
  15.5832555  66.6111271  78.2287123  16.7931750  67.4755650  77.9445997
  12.9427667  78.6028930  61.4653049  13.4552188  79.3972180  61.6158614
  13.5950380  77.9055221  61.3986651  14.7522552  81.7194686  63.5475802
  14.9289181  82.6412651  63.3596786  15.5479386  81.4053106  63.9770182
  18.8933571  68.5802951  75.1459736  19.6343284  69.1810104  75.0664198
  19.1251494  67.8380589  74.5877778  14.0374909  73.7659318  73.4237965
  13.9228424  72.8644576  73.7245064  13.1819426  74.0123015  73.0722782
  21.1166746  81.7077059  75.0225466  20.6730601  80.9213437  74.7046371
  21.7783960  81.8956209  74.3569357  15.8753868  83.2372860  69.5486145
  16.4261293  83.1089924  68.7763139  15.0365344  83.5367749  69.1981037
  23.2147985  81.9879859  73.0506867  23.1966460  82.8088740  72.5587137
  24.1367905  81.8633934  73.2757009  19.6721039  79.5023988  73.8930376
  20.2049375  78.7412276  73.6629684  19.1435120  79.2097640  74.6354530
  22.8390734  64.6084054  69.4224017  22.4955003  65.4985696  69.3463128
  23.2069696  64.4185712  68.5593602  10.9076584  76.9317584  62.2412620
  11.7451806  77.3414593  62.0246327  11.0854852  75.9917027  62.2112814
  22.8041016  74.5992665  57.9296453  22.2887640  75.3697270  58.1684840
  22.5318325  73.9257801  58.5529514  20.3888127  69.4442366  62.9881691
  19.5329724  69.0549216  62.8087330  20.8015079  69.5234327  62.1281477
  21.9187274  66.9788709  67.3873251  21.4152070  66.9418844  66.5741056
  22.2117881  67.8881452  67.4469907  18.1630160  67.0627439  66.3939432
  19.0283157  66.8670248  66.0345322  18.2307669  66.8337791  67.3208789
  27.7775291  77.3525020  59.8649626  27.0004733  77.0136179  59.4204788
  28.4566771  77.3577643  59.1904591  22.5927320  72.4719757  59.7556234
  22.2877455  72.7865906  60.6066377  23.5457762  72.5501177  59.7983567
  21.0373751  78.6309981  61.4049188  20.5095113  77.8962740  61.0922425
  20.5361254  79.4084657  61.1589156  26.0166597  76.8259001  66.5216234
  25.3590272  77.5158262  66.6096363  26.8206997  77.2155433  66.8650220
  15.7692479  69.2929647  63.7655799  16.3436231  69.0704828  63.0328992
  16.3563461  69.3618341  64.5184401  24.8272056  75.1803374  64.5720176
  25.3403938  75.8133366  65.0741886  25.4773280  74.5804569  64.2063536
  16.0962066  71.3234108  57.7851685  15.2599378  71.6608794  58.1060959
  15.9566836  71.1883088  56.8478822  18.0715147  66.1670896  62.4930869
  17.4179559  65.8519913  61.8687483  18.0295621  65.5446636  63.2190692
  19.1826352  76.4490191  54.4084161  18.2753413  76.2179444  54.6075310
  19.6797384  75.6527810  54.5958142  22.0894430  85.1587698  57.3280847
  21.4156129  85.4619395  57.9365805  22.4760252  85.9616778  56.9786304
  21.3052887  72.6552829  66.8178516  20.3875448  72.8767776  66.6600204
  21.7213031  72.7299140  65.9590224  22.0887935  74.0544245  61.9481197
  22.8359754  74.5665642  61.6388319  22.3579524  73.7328298  62.8085590
  20.3614585  76.5502786  58.9308151  19.4525804  76.2661819  59.0280621
  20.3909669  76.9701864  58.0711458  25.5933852  80.1609375  62.6999318
  25.1396180  79.3200285  62.7564509  24.9627819  80.7970774  63.0374099
  24.5366772  71.0901361  63.9299986  23.7989529  70.5778747  64.2610228
  24.7893546  70.6501743  63.1183263  24.0366792  81.9985872  63.6349137
  24.3289766  82.5590929  62.9161502  24.5465412  82.2914433  64.3902296
  24.6378399  63.8677613  64.5241755  24.9437276  63.0074977  64.2367670
  25.3631004  64.4595233  64.3240749  10.9302755  74.2708300  62.9123353
  10.7327155  73.6777661  62.1874420  10.3749419  73.9660510  63.6299292
  18.9099479  74.1631406  65.0317946  18.9648089  73.2105243  64.9560423
  18.0990681  74.3190845  65.5159245  20.0590673  78.0911529  56.2696229
  19.6210103  77.3747388  55.8101867  20.8001114  78.3187644  55.7081321
  16.8491839  72.7808466  62.7908325  16.0359705  73.0802637  63.1973517
  17.3450833  72.3864155  63.5082807  19.0000417  82.7766223  64.7242590
  18.9576596  83.0027069  63.7951122  19.9163116  82.5429598  64.8728391
  22.4466051  73.2450291  71.6223219  22.8015438  73.4721764  72.4817685
  23.0938182  73.5768667  71.0000474  28.1763788  76.3668726  62.3272548
  28.0381686  76.5570322  61.3993737  27.8200006  77.1288109  62.7840599
  16.3405914  70.3526822  68.4069560  16.9805293  70.2115581  67.7092523
  15.5083444  70.0661335  68.0308162  28.2033167  78.4345253  67.3383820
  28.6369674  78.3420543  68.1866874  28.9164748  78.4102754  66.7003836
  17.1166218  79.6529252  64.5204553  17.9106816  79.1579572  64.3187127
  16.4057910  79.1247115  64.1572258  21.9361062  82.0347348  68.8716920
  21.9898084  82.6038284  69.6394636  21.0675843  82.2049233  68.5070957
  13.4248981  73.7972334  60.5964305  12.4946569  73.7356789  60.8134267
  13.5206453  73.2748286  59.8000946  13.3434530  70.3227147  63.1842547
  13.6041347  71.2372480  63.0751707  14.1651702  69.8551589  63.3339160
  14.8159455  71.7364904  70.3541371  15.4882509  71.5282266  69.7054020
  13.9889242  71.5386990  69.9146604  29.0648717  78.4768954  69.8716705
  29.2584607  79.3814765  70.1175980  28.9649335  78.0176373  70.7055290
  20.7185028  68.3626845  72.3707032  20.0712943  69.0616794  72.2771509
  21.4886043  68.7962989  72.7383280  24.1263825  78.6275697  75.4457586
  23.9749332  78.3986249  74.5287669  24.1168505  79.5846298  75.4588931
  20.8949162  76.2007610  70.4303852  21.8241222  76.3518769  70.2572819
  20.4740192  76.2891630  69.5752499  19.6937494  80.2258274  68.2002390
  19.5548579  79.8577058  69.0728328  18.9052090  80.7405913  68.0286347
  20.2885646  85.3267370  59.5427926  20.4637401  84.8555414  60.3573549
  19.6018434  85.9533137  59.7709187  21.2442709  79.6039877  65.5891227
  20.9092541  79.5640647  66.4848877  20.7446654  78.9384593  65.1161638
  15.2186953  75.0107507  71.1143809  15.0806751  74.2787746  71.7155348
  16.1291876  74.9216407  70.8327996  24.1801900  76.9495911  55.8628287
  23.5631071  76.2242739  55.7661340  23.7118389  77.7105271  55.5195361
  17.8469253  74.7227466  70.6027488  18.5568872  74.0820658  70.5614107
  17.8038562  74.9740361  71.5253669  25.8356032  81.6594819  73.5234067
  25.7768578  80.9754039  72.8564650  26.2375550  82.4013809  73.0714693
  16.5598187  71.7092684  72.4223128  16.0235544  71.2583422  73.0744724
  15.9714896  71.8438593  71.6793592  14.8546731  88.4756733  66.3167786
  15.0943329  89.1075257  66.9946805  14.0115927  88.1244773  66.6033146
  15.9700446  71.1681335  54.9849591  15.0929913  71.0470136  54.6211838
  16.4458199  70.3767414  54.7328480  25.8373439  79.6234403  71.7548047
  24.9500218  79.2860325  71.8774446  26.4071990  78.8917435  71.9916812
   7.4902586  75.9558495  65.0791098   8.1773626  75.6420225  64.4912114
   7.3350715  76.8599860  64.8058350  12.2937309  70.8448692  69.5076122
  12.2095497  70.2374361  68.7726532  11.4720015  71.3357710  69.5085619
  19.3674593  84.2835856  68.7209290  19.2944764  85.0890827  69.2328595
  18.9251986  84.4827821  67.8957312  19.1564372  83.5207626  62.2312112
  18.3731894  84.0629306  62.3250336  19.8557118  84.0381605  62.6306353
  22.4661022  69.3302255  64.8746317  22.9629722  68.5772217  64.5547387
  21.6948004  69.3666572  64.3089527  30.3190780  75.0342621  66.5164609
  30.3080656  75.9167336  66.1458542  29.4508159  74.6814171  66.3219146
  21.8273276  84.1822690  70.8767449  22.5401248  84.8170154  70.8043350
  21.3363305  84.2786556  70.0607451  23.5490803  78.0873942  62.4484741
  22.6147082  78.2075405  62.2789445  23.7267472  77.1846409  62.1844750
  19.0495991  71.4719638  64.6018002  18.6793779  70.9190679  65.2898907
  19.5455084  70.8677772  64.0493002  26.9363355  73.9291262  62.9834775
  27.4023807  74.7619253  62.9095077  27.3870855  73.4636243  63.6880033
  16.8785190  81.9317133  71.6973020  17.5794649  82.5653616  71.8502414
  16.4080305  82.2731865  70.9368659  25.0039586  80.2735083  59.9820927
  25.2799430  80.1591678  60.8914801  24.1344084  79.8752568  59.9433100
  24.9080017  66.2971849  67.0225676  23.9943097  66.5276075  67.1907883
  25.3373119  66.3810293  67.8739708  24.6786476  74.4861741  69.5225570
  24.0257926  74.7337648  68.8678023  25.0566856  73.6725879  69.1888047
  21.6393650  84.5221434  63.6253740  21.8216044  83.7043090  64.0881493
  22.4626636  84.7389126  63.1878630  21.9735815  83.4489619  60.8868789
  22.5023582  82.9382073  60.2738951  22.2364035  83.1332149  61.7514322
  20.7274049  75.2281552  76.0091607  20.0514686  75.1275681  76.6793982
  21.5501683  75.0720765  76.4727604  12.4752908  81.4653488  68.6304122
  13.0606345  80.7197176  68.7632027  12.2777746  81.7757445  69.5140786
  15.3291563  84.5004736  63.6466565  14.6601938  84.9850863  63.1630605
  15.1904433  84.7473956  64.5609943   7.0670563  74.0359088  67.3508566
   7.1054662  73.5022679  68.1445684   6.5610855  73.5094294  66.7319543
  19.4696832  86.5348479  70.2449223  20.0215140  86.6980101  71.0098308
  19.8103025  87.1252917  69.5729248  14.4461325  68.8823629  70.8471108
  14.5102651  69.7438460  70.4348506  14.3828445  68.2697631  70.1143466
  13.9213597  70.9546761  74.4944142  14.5485636  70.5723839  75.1081666
  13.0641516  70.7360963  74.8599835  24.3207706  81.3609737  76.0997878
  24.8647610  81.9739695  75.6052832  23.7394551  81.9189315  76.6164891
  10.6979140  72.7623191  60.4262497  10.9932581  71.8533869  60.3729551
   9.7967176  72.7410930  60.1043499  22.6065219  84.4830455  67.2312905
  22.4816358  83.6820194  66.7223851  23.2644310  84.9776648  66.7426875
  14.2273387  70.8379187  66.4090046  13.5059973  71.4515155  66.2697519
  15.0166643  71.3736952  66.3306692  24.6700127  82.2839475  68.8592455
  23.7230463  82.1644826  68.7870782  25.0182900  81.3961973  68.9418717
  17.0299701  68.1733614  72.6830697  17.5534103  68.4195910  73.4457007
  16.8112034  69.0053648  72.2633835  12.4266982  70.4437288  60.5501822
  12.0979688  69.5634667  60.3676928  12.7806352  70.3884957  61.4378211
  21.6746561  82.0792191  65.0596808  21.5271523  81.1508898  65.2404378
  22.5000054  82.1012282  64.5753883  15.5408805  70.7310258  60.9177300
  15.8804877  71.2596179  60.1955908  15.9880925  71.0690664  61.6935866
  25.2780682  82.9020750  66.1461680  26.2027230  82.6963611  66.0086132
  25.1095986  82.6537151  67.0551022  18.2352246  69.1147309  70.3680368
  17.8949066  68.3155122  70.7701048  17.5291252  69.4149020  69.7957201
  18.8868718  66.1996621  68.8207691  19.7094787  65.7257099  68.6986581
  19.1306781  66.9787105  69.3206377  17.5276952  69.2284880  59.1170593
  18.2485315  69.6066132  58.6134309  16.9042256  69.9473756  59.2205571
  21.6708075  69.9330029  60.0528925  21.8871689  70.8154666  59.7517753
  21.1902142  69.5416242  59.3234567  16.4107296  72.8915742  66.6299670
  16.2651877  73.2056045  67.5223951  15.9332500  73.5100642  66.0770568
  18.2703679  69.8818290  66.6780559  18.2565248  68.9859383  66.3412857
  18.9876107  69.8888954  67.3118845  20.1229810  70.3155630  68.7233686
  19.8647588  71.2372701  68.7218017  19.5914850  69.9186065  69.4134151
  25.0675999  83.4206417  61.5023772  25.2412876  82.8552840  60.7497624
  25.5604890  84.2207312  61.3203262  10.8852958  75.4321086  69.5687331
  10.3406427  76.2080894  69.7007605  11.7632308  75.7791891  69.4106452
  17.6740575  68.7632670  61.9468129  17.7956486  67.8349316  62.1459017
  17.3842618  68.7771356  61.0346445  20.5431766  66.4487580  65.0834849
  20.5653462  66.5126914  64.1286829  20.9599825  65.6092089  65.2775355
  30.9215390  76.1842840  63.1214072  31.3646536  75.4350165  62.7233195
  30.0441900  76.1752976  62.7387804  26.0551171  82.7373182  58.6020670
  26.7502076  83.3579874  58.8207985  26.3974321  81.8868533  58.8773048
  11.6718980  74.5590982  72.4617488  10.9300716  74.7073618  73.0482118
  11.3511725  74.8199248  71.5984237  27.9542594  80.1872887  60.1308001
  28.4793918  80.5260160  59.4057321  27.8664947  79.2519902  59.9471136
  19.6162643  84.1006961  72.2597878  19.9249769  83.8556107  73.1320577
  20.4138125  84.3053599  71.7716748  19.6383255  86.2544870  64.4903254
  19.1988245  85.7621249  65.1836111  20.3891372  85.7117838  64.2495329
  12.1175594  82.4456411  64.4927882  12.9433614  82.1460183  64.1126526
  11.7669646  81.6764034  64.9417671  17.0857127  81.7982879  66.5625556
  16.4637136  81.1353584  66.2627784  17.7561994  81.8244011  65.8799204
  10.3184199  80.3642738  65.4516816   9.4816107  79.9364912  65.2700817
  10.2907845  80.5575181  66.3887607  17.1581655  70.2764667  76.1558062
  17.2069810  71.1526790  75.7735831  17.7004169  69.7342060  75.5829705
  27.6436500  80.8205791  75.4359199  26.8532044  80.8029930  74.8963698
  27.4069855  81.3594084  76.1908235  27.7634375  77.6698257  72.7491927
  27.8132380  77.5048264  73.6907450  27.6548299  76.8025516  72.3589808
  16.6470634  80.3486803  60.0384016  16.7958754  81.0322267  59.3850689
  17.4537078  80.3291893  60.5533472  25.0538138  73.6529185  74.0651234
  25.9548001  73.5135650  73.7735232  25.1286112  73.8183640  75.0049412
  19.3880943  71.0296040  72.9104420  18.5184253  71.3229606  72.6387009
  19.6240423  71.6136485  73.6311684  29.2652572  80.0895199  72.9933949
  28.9737381  80.4525179  73.8297410  28.6524704  79.3762207  72.8147281
  30.4648255  77.6548078  65.5136519  31.2995146  78.0937882  65.6774080
  30.6007383  77.1786732  64.6944765  27.5139760  75.2127813  71.4614007
  27.9893882  75.4055460  70.6532858  26.5905326  75.2686999  71.2157391
  14.4023267  76.3751980  61.0445085  14.1569309  75.4714310  61.2425295
  14.5719182  76.3769131  60.1024563  22.0919977  67.2475657  70.4269841
  22.6101921  67.9836684  70.1016329  21.7375110  67.5539650  71.2616600
  13.6718915  72.1080338  58.5431247  12.9788160  72.1824693  57.8871283
  13.4270667  71.3440682  59.0652764  22.3432571  63.6675939  65.9470737
  22.6234325  62.9999128  66.5731164  23.1283178  63.8605035  65.4345401
  20.1466040  82.8434933  57.5095764  19.5740007  83.4625120  57.0566236
  20.7198833  83.3934295  58.0435686  26.2141429  72.0893573  69.6942313
  27.1658852  72.1891671  69.7154537  26.0444880  71.2971842  70.2040397
  24.2355809  69.1749156  69.8801713  23.6405741  69.4554169  69.1848202
  23.9505506  69.6643057  70.6518455  23.3663299  83.1272083  58.6404346
  24.2993973  83.0617645  58.8437222  23.2786512  83.9628350  58.1818879
  25.9951316  82.4437954  55.6008294  25.9164948  82.1097817  56.4944052
  26.8160983  82.9359722  55.5999766  28.6929507  75.3099693  68.8084612
  28.6605827  74.3715694  68.9944296  29.3030131  75.3883730  68.0750437
  20.5312838  74.1795746  54.8511816  21.4771943  74.0501954  54.9200234
  20.1527083  73.4410408  55.3281244  28.8423996  72.1010736  68.8542895
  28.3263044  71.3169193  68.6672824  29.7263944  71.7729453  69.0189415
  26.5034723  65.8451752  64.8138708  26.3059544  65.5366840  65.6982040
  27.1134428  66.5713391  64.9436638  34.5106057  76.3715700  67.9490649
  35.2409446  76.1100988  68.5098352  33.9013003  75.6344422  67.9892717
  32.5921354  74.5123562  68.5465100  31.8654518  74.3779527  67.9381592
  32.1768641  74.8200391  69.3521818  20.4151531  78.2313492  76.3112473
  21.3354540  78.4092091  76.5052520  20.3801114  77.2869537  76.1592172
  18.7155755  72.1045722  54.7866701  17.8087211  71.8078835  54.8629415
  18.9931736  71.8075540  53.9200988   9.6333696  73.4252086  65.2365748
   9.3136480  72.5717394  64.9440122   9.0867124  73.6400664  65.9923715
  13.4113603  76.1414527  68.9535254  13.6299613  77.0731635  68.9723288
  13.8239377  75.7822501  69.7390058  20.3317821  66.6482612  60.9410943
  19.5218549  66.3029697  61.3166189  21.0202238  66.3390156  61.5298554
  22.2608369  65.7260659  62.5635239  22.8139408  66.1456112  63.2225263
  22.4978456  64.7996407  62.6058195  18.2841469  71.7147732  78.3438003
  18.1838195  72.6642089  78.2750094  18.0663011  71.3865971  77.4714073
  17.4854540  68.9632658  54.9278681  18.3473704  69.2887556  55.1874498
  17.6704884  68.1764153  54.4151746   9.5021956  77.0454997  67.2058869
   8.8085427  76.6308950  66.6928824  10.2494947  77.0875534  66.6092288
  25.6387176  67.8361184  62.0713904  25.0585845  68.4945988  61.6891956
  25.3723109  67.0138529  61.6601321  24.0890743  67.2366242  64.2735224
  24.5890521  67.3482776  63.4649543  24.7326351  66.9327295  64.9136032
  18.1472739  75.1444871  77.1603065  17.6639820  75.9445231  77.3666954
  18.2333678  75.1552816  76.2070509  11.4158698  76.9773251  65.0824884
  11.3929386  77.0760938  64.1306767  11.7259335  77.8238402  65.4042050
  14.0746076  79.0349406  69.1971499  15.0289330  79.0033348  69.1301430
  13.8758600  78.5740030  70.0121725  14.6645458  77.6050522  71.7642296
  15.4838347  78.0994601  71.7877134  14.9382266  76.6882490  71.7359864
  24.4212054  69.9961274  61.1270252  23.5337909  70.2810925  60.9090447
  24.8366043  69.8355038  60.2797529  27.7726591  70.0207795  64.8424591
  28.5486981  70.5104248  65.1149208  27.0474725  70.4465850  65.2996461
  30.2099149  70.7335415  65.8998532  30.8043640  70.4931151  65.1891840
  30.2825733  70.0142545  66.5272068  12.4296305  84.5769026  66.2141697
  12.2950773  83.8169426  65.6479695  12.0128367  85.3009925  65.7470485
  23.5655268  79.7605949  55.2218272  24.2691118  79.9655952  55.8375928
  22.8417917  80.3282711  55.4867355  24.3953078  75.5115810  61.3420542
  24.3388280  75.9684362  60.5028174  24.9481421  74.7506495  61.1643385
  28.2057884  71.3005542  62.1670662  27.9494818  70.9002178  62.9978869
  27.5810752  72.0149336  62.0420801  32.5170222  74.0401615  64.6741953
  31.9569780  74.1094805  65.4473515  31.9113725  73.8642600  63.9541449
  15.5865431  85.4738343  66.4260139  15.4697815  86.4183775  66.3238830
  14.7657877  85.1711904  66.8145938  25.4741965  80.1988478  57.2716732
  26.3087569  79.7669677  57.0894207  25.3126308  80.0270492  58.1993626
  25.1287857  76.7020592  58.6373071  25.0736661  76.5364863  57.6961515
  24.5033913  77.4096624  58.7935261   9.9180372  71.9388656  72.4634493
  10.5639236  71.4287610  72.9521719   9.7097524  72.6757338  73.0377919
  22.4433765  79.0069503  77.9626634  23.3124924  79.1810156  77.6013269
  21.9640516  79.8263920  77.8402363  18.4383983  66.2028701  58.2158390
  18.4262653  67.1470540  58.3726661  19.3307405  66.0198846  57.9217851
  16.6119945  86.1266604  69.6416068  17.5147192  86.1590215  69.9582563
  16.3857315  85.1967055  69.6562403  18.3673547  84.8797591  66.3026146
  17.4169178  84.8799453  66.1890519  18.6706033  84.1330326  65.7862181
  22.2536102  62.7971477  62.4704326  21.4868498  62.2429964  62.6161009
  22.6646807  62.8693346  63.3318478  14.2577863  69.0856273  76.5609508
  15.1209325  68.7293078  76.7712832  13.6843274  68.7470168  77.2484912
  34.1026240  90.7158129  67.3671909  34.7404650  90.5964877  66.6635249
  33.9847083  91.6638973  67.4259861  30.9115947  90.6685557  67.3033433
  30.5734458  90.5526622  66.4153968  31.7805715  90.2676723  67.2834440
  26.7702762  92.5221034  63.2930324  26.2067627  92.4310971  62.5246612
  26.6555157  91.7020938  63.7732817  31.3935730  91.8220409  73.2619639
  31.3824370  91.4273207  72.3900143  31.5556369  91.0886482  73.8553410
  24.3167194  94.0172225  66.1314545  25.1088486  93.6763050  65.7160844
  24.5563844  94.1267201  67.0516698  32.3502321  96.1892002  58.6044789
  31.6990301  96.7746082  58.2178803  33.1446684  96.7198197  58.6639827
  26.2757948  93.2781139  59.0031924  27.0488824  92.7310126  58.8644799
  26.6283347  94.1425388  59.2146385  28.1142991  94.6057521  72.2098823
  27.8232857  95.5103152  72.0945489  28.7499975  94.6474049  72.9242892
  29.0399198  91.9834370  68.8000183  29.6362770  91.7590392  68.0857145
  29.0974169  91.2419115  69.4025630  28.6124226  89.4373805  56.6350374
  28.8649747  88.9155326  55.8733837  27.6748785  89.2739950  56.7377057
  33.6567509  88.4409583  64.4425117  34.4430598  88.0229006  64.0915534
  33.9206213  89.3455675  64.6106765  33.8277586  93.8782434  59.1413774
  33.1923419  93.9517060  59.8534678  33.4974993  94.4676032  58.4632853
  39.0575936  88.3784816  65.3458095  39.7901108  87.8084033  65.5795925
  38.3015292  87.9906417  65.7864601  28.3320515  91.3401911  58.8374748
  28.2156773  90.6646814  59.5055833  28.4422775  90.8534285  58.0206902
  30.6752056  90.8012058  62.5421438  30.3110263  90.2742679  63.2534359
  31.5319172  90.4110527  62.3687923  36.5801356  82.0906391  69.8052704
  36.2484681  82.9601802  69.5813919  35.9846970  81.7742675  70.4846734
  30.3157543  85.8301958  57.5382786  30.4831945  86.6982194  57.9053257
  30.1254712  85.9929239  56.6144075  33.0732876  94.2918937  69.2048617
  32.7733599  95.1943975  69.0964424  32.7283935  94.0251120  70.0569769
  26.5245357  90.7432733  65.2385321  25.5995854  90.6108947  65.4463013
  26.7729771  91.5226953  65.7355263  36.4730020  86.8101477  66.8846054
  35.5646897  86.7416885  66.5904815  36.4217615  87.2873422  67.7127879
  30.2946764  88.2859615  58.5229453  30.1746389  88.7316666  59.3614933
  29.5999352  88.6344933  57.9642991  23.8854168  90.3866007  66.0729110
  24.0146550  90.6400486  66.9868522  23.2051620  90.9793715  65.7533765
  30.5470885  88.2291122  74.8280951  29.7704220  88.7885042  74.8183816
  31.1861448  88.7147905  75.3495821  38.3391666  85.0117915  68.6623928
  37.6966046  85.3050448  68.0163722  37.8346595  84.8970835  69.4677125
  35.9931830  88.7581088  59.3509787  36.9049686  88.9908475  59.1757485
  35.4841477  89.3418133  58.7884866  28.8017258  91.0376576  74.3898918
  29.5431942  91.5761620  74.1133742  28.0954243  91.6642864  74.5470470
  34.2772597  93.1805716  72.9871080  34.6855953  92.7388127  72.2425712
  33.5549859  92.6058344  73.2405273  30.6303667  88.1178323  70.3604637
  31.4764863  88.5417736  70.5039286  30.5702305  87.4611947  71.0543200
  34.6001412  93.7406907  66.7423369  33.9710274  93.9052621  66.0399436
  34.2127074  94.1548516  67.5134333  38.4790644  94.6761345  64.0967732
  37.7941682  95.0560246  63.5464766  38.5634493  95.2856671  64.8299680
  33.7803113  85.7782691  72.0185810  33.5364045  86.5324752  71.4820086
  34.0563043  86.1568039  72.8533057  35.7341576  92.3221304  70.6963076
  35.9458471  92.9653064  70.0197457  35.6871324  91.4883620  70.2285006
  33.3367804  84.9339124  67.5999648  32.4752284  85.2320378  67.8916386
  33.3630239  85.1509523  66.6680681  30.1529374  93.4781315  64.0073454
  30.6167719  93.7569018  63.2178076  29.8886172  92.5764759  63.8246544
  27.0453455  93.0252796  66.9453217  27.6154812  93.4540065  66.3070701
  27.6361567  92.7435381  67.6437403  29.0898260  89.6004467  60.8163019
  29.7922303  90.0525511  61.2836945  28.7578888  88.9588286  61.4442912
  27.5378621  88.1916224  75.1914228  26.9077282  88.8732505  75.4249625
  27.4314709  88.0799305  74.2467366  22.8323594  87.8588020  66.1180152
  22.0422648  88.1145548  65.6420263  23.3234841  88.6736358  66.2232193
  36.8487403  95.1993259  68.8685433  37.6704847  94.7973446  68.5868115
  36.8449806  95.0961493  69.8201549  24.7838339  88.2232599  63.0763629
  23.9869503  88.3351293  63.5947125  24.5563932  88.5619251  62.2104520
  30.6144007  94.7477302  71.0246144  30.6788439  95.2097710  71.8604316
  29.9054931  94.1174667  71.1528454  21.1161297  88.1118510  68.5495143
  21.3669335  88.9965520  68.8152719  21.6520845  87.9323112  67.7770235
  44.9393397  91.5432008  65.2170405  44.1857105  90.9739406  65.0614409
  45.0740938  91.5094672  66.1641039  30.3292025  96.4145410  60.8925124
  30.1937699  97.2596946  61.3209972  30.8701837  96.6164687  60.1291058
  26.8159364  82.4936990  77.5539479  26.4226310  81.9403188  78.2287123
  27.6325505  82.8047568  77.9445997  23.7821422  93.9320848  61.4653049
  24.2945943  94.7264098  61.6158614  24.4344135  93.2347138  61.3986651
  25.5916307  97.0486604  63.5475802  25.7682935  97.9704569  63.3596786
  26.3873140  96.7345023  63.9770182  29.7327325  83.9094869  75.1459736
  30.4737039  84.5102022  75.0664198  29.9645248  83.1672507  74.5877778
  24.8768663  89.0951236  73.4237965  24.7622178  88.1936493  73.7245064
  24.0213181  89.3414933  73.0722782  31.9560501  97.0368976  75.0225466
  31.5124355  96.2505355  74.7046371  32.6177715  97.2248127  74.3569357
  34.0541739  97.3171776  73.0506867  34.0360214  98.1380657  72.5587137
  34.9761659  97.1925851  73.2757009  30.5114793  94.8315906  73.8930376
  31.0443130  94.0704194  73.6629684  29.9828874  94.5389558  74.6354530
  33.6784488  79.9375972  69.4224017  33.3348758  80.8277613  69.3463128
  34.0463451  79.7477629  68.5593602  21.7470339  92.2609502  62.2412620
  22.5845561  92.6706511  62.0246327  21.9248606  91.3208944  62.2112814
  33.6434771  89.9284583  57.9296453  33.1281394  90.6989187  58.1684840
  33.3712079  89.2549719  58.5529514  31.2281882  84.7734284  62.9881691
  30.3723478  84.3841134  62.8087330  31.6408834  84.8526244  62.1281477
  32.7581029  82.3080627  67.3873251  32.2545824  82.2710762  66.5741056
  33.0511635  83.2173370  67.4469907  29.0023914  82.3919357  66.3939432
  29.8676911  82.1962165  66.0345322  29.0701423  82.1629708  67.3208789
  38.6169045  92.6816937  59.8649626  37.8398488  92.3428097  59.4204788
  39.2960526  92.6869561  59.1904591  33.4321074  87.8011675  59.7556234
  33.1271210  88.1157824  60.6066377  34.3851516  87.8793095  59.7983567
  31.8767506  93.9601898  61.4049188  31.3488867  93.2254658  61.0922425
  31.3755009  94.7376575  61.1589156  36.8560352  92.1550919  66.5216234
  36.1984026  92.8450180  66.6096363  37.6600751  92.5447351  66.8650220
  26.6086234  84.6221565  63.7655799  27.1829985  84.3996746  63.0328992
  27.1957216  84.6910259  64.5184401  35.6665811  90.5095291  64.5720176
  36.1797692  91.1425283  65.0741886  36.3167035  89.9096487  64.2063536
  26.9355821  86.6526026  57.7851685  26.0993133  86.9900712  58.1060959
  26.7960590  86.5175005  56.8478822  28.9108901  81.4962813  62.4930869
  28.2573314  81.1811831  61.8687483  28.8689375  80.8738554  63.2190692
  30.0220106  91.7782109  54.4084161  29.1147168  91.5471362  54.6075310
  30.5191138  90.9819728  54.5958142  32.1446642  87.9844747  66.8178516
  31.2269203  88.2059694  66.6600204  32.5606785  88.0591057  65.9590224
  32.9281689  89.3836163  61.9481197  33.6753508  89.8957560  61.6388319
  33.1973279  89.0620215  62.8085590  31.2008340  91.8794703  58.9308151
  30.2919559  91.5953736  59.0280621  31.2303423  92.2993782  58.0711458
  36.4327607  95.4901293  62.6999318  35.9789934  94.6492203  62.7564509
  35.8021574  96.1262691  63.0374099  35.3760526  86.4193279  63.9299986
  34.6383283  85.9070665  64.2610228  35.6287300  85.9793661  63.1183263
  34.8760546  97.3277790  63.6349137  35.1683521  97.8882847  62.9161502
  35.3859167  97.6206351  64.3902296  35.4772154  79.1969531  64.5241755
  35.7831031  78.3366894  64.2367670  36.2024759  79.7887151  64.3240749
  21.7696510  89.6000217  62.9123353  21.5720910  89.0069578  62.1874420
  21.2143174  89.2952428  63.6299292  29.7493234  89.4923324  65.0317946
  29.8041843  88.5397160  64.9560423  28.9384436  89.6482763  65.5159245
  30.8984427  93.4203447  56.2696229  30.4603857  92.7039306  55.8101867
  31.6394868  93.6479562  55.7081321  27.6885593  88.1100384  62.7908325
  26.8753459  88.4094554  63.1973517  28.1844588  87.7156072  63.5082807
  29.8394171  98.1058141  64.7242590  29.7970350  98.3318987  63.7951122
  30.7556870  97.8721515  64.8728391  33.2859805  88.5742208  71.6223219
  33.6409193  88.8013681  72.4817685  33.9331936  88.9060585  71.0000474
  39.0157542  91.6960644  62.3272548  38.8775441  91.8862240  61.3993737
  38.6593761  92.4580027  62.7840599  27.1799668  85.6818739  68.4069560
  27.8199048  85.5407498  67.7092523  26.3477199  85.3953253  68.0308162
  39.0426922  93.7637171  67.3383820  39.4763428  93.6712460  68.1866874
  39.7558502  93.7394672  66.7003836  27.9559972  94.9821170  64.5204553
  28.7500571  94.4871490  64.3187127  27.2451665  94.4539033  64.1572258
  32.7754817  97.3639265  68.8716920  32.8291839  97.9330202  69.6394636
  31.9069598  97.5341150  68.5070957  24.2642736  89.1264251  60.5964305
  23.3340324  89.0648707  60.8134267  24.3600208  88.6040204  59.8000946
  24.1828285  85.6519064  63.1842547  24.4435102  86.5664397  63.0751707
  25.0045457  85.1843507  63.3339160  25.6553210  87.0656821  70.3541371
  26.3276263  86.8574184  69.7054020  24.8282997  86.8678907  69.9146604
  39.9042471  93.8060872  69.8716705  40.0978361  94.7106682  70.1175980
  39.8043089  93.3468291  70.7055290  31.5578782  83.6918762  72.3707032
  30.9106697  84.3908712  72.2771509  32.3279797  84.1254906  72.7383280
  34.9657580  93.9567614  75.4457586  34.8143086  93.7278166  74.5287669
  34.9562259  94.9138216  75.4588931  31.7342916  91.5299527  70.4303852
  32.6634976  91.6810687  70.2572819  31.3133946  91.6183548  69.5752499
  30.5331248  95.5550192  68.2002390  30.3942334  95.1868976  69.0728328
  29.7445844  96.0697831  68.0286347  32.0836463  94.9331794  65.5891227
  31.7486296  94.8932564  66.4848877  31.5840409  94.2676510  65.1161638
  26.0580707  90.3399424  71.1143809  25.9200505  89.6079663  71.7155348
  26.9685631  90.2508324  70.8327996  35.0195655  92.2787829  55.8628287
  34.4024826  91.5534657  55.7661340  34.5512143  93.0397189  55.5195361
  28.6863008  90.0519384  70.6027488  29.3962626  89.4112576  70.5614107
  28.6432316  90.3032279  71.5253669  36.6749787  96.9886737  73.5234067
  36.6162333  96.3045957  72.8564650  37.0769305  97.7305727  73.0714693
  27.3991942  87.0384602  72.4223128  26.8629299  86.5875340  73.0744724
  26.8108650  87.1730510  71.6793592  26.8094201  86.4973253  54.9849591
  25.9323667  86.3762054  54.6211838  27.2851954  85.7059331  54.7328480
  36.6767194  94.9526321  71.7548047  35.7893973  94.6152243  71.8774446
  37.2465745  94.2209352  71.9916812  18.3296341  91.2850413  65.0791098
  19.0167381  90.9712143  64.4912114  18.1744470  92.1891777  64.8058350
  23.1331063  86.1740609  69.5076122  23.0489252  85.5666279  68.7726532
  22.3113770  86.6649628  69.5085619  29.9958127  98.8499543  62.2312112
  29.2125649  99.3921224  62.3250336  30.6950872  99.3673523  62.6306353
  33.3054777  84.6594173  64.8746317  33.8023477  83.9064135  64.5547387
  32.5341758  84.6958489  64.3089527  41.1584534  90.3634538  66.5164609
  41.1474411  91.2459254  66.1458542  40.2901914  90.0106089  66.3219146
  32.6667031  99.5114607  70.8767449  33.3795003 100.1462072  70.8043350
  32.1757059  99.6078473  70.0607451  34.3884558  93.4165860  62.4484741
  33.4540836  93.5367322  62.2789445  34.5661226  92.5138327  62.1844750
  29.8889746  86.8011556  64.6018002  29.5187533  86.2482596  65.2898907
  30.3848838  86.1969689  64.0493002  37.7757109  89.2583179  62.9834775
  38.2417561  90.0911171  62.9095077  38.2264610  88.7928161  63.6880033
  27.7178944  97.2609051  71.6973020  28.4188404  97.8945534  71.8502414
  27.2474059  97.6023782  70.9368659  35.8433340  95.6027001  59.9820927
  36.1193184  95.4883595  60.8914801  34.9737839  95.2044485  59.9433100
  35.7473772  81.6263766  67.0225676  34.8336852  81.8567993  67.1907883
  36.1766873  81.7102210  67.8739708  35.5180230  89.8153658  69.5225570
  34.8651681  90.0629566  68.8678023  35.8960610  89.0017796  69.1888047
  32.4787404  99.8513351  63.6253740  32.6609799  99.0335007  64.0881493
  33.3020390 100.0681044  63.1878630  32.8129570  98.7781537  60.8868789
  33.3417336  98.2673991  60.2738951  33.0757789  98.4624067  61.7514322
  31.5667803  90.5573469  76.0091607  30.8908440  90.4567599  76.6793982
  32.3895437  90.4012683  76.4727604  23.3146662  96.7945406  68.6304122
  23.9000099  96.0489094  68.7632027  23.1171501  97.1049363  69.5140786
  17.9064317  89.3651006  67.3508566  17.9448417  88.8314597  68.1445684
  17.4004610  88.8386212  66.7319543  25.2855079  84.2115547  70.8471108
  25.3496406  85.0730377  70.4348506  25.2222200  83.5989548  70.1143466
  24.7607352  86.2838679  74.4944142  25.3879391  85.9015756  75.1081666
  23.9035271  86.0652881  74.8599835  35.1601460  96.6901654  76.0997878
  35.7041364  97.3031613  75.6052832  34.5788305  97.2481233  76.6164891
  21.5372895  88.0915108  60.4262497  21.8326336  87.1825787  60.3729551
  20.6360930  88.0702848  60.1043499  33.4458973  99.8122372  67.2312905
  33.3210113  99.0112112  66.7223851  34.1038065 100.3068566  66.7426875
  25.0667142  86.1671105  66.4090046  24.3453727  86.7807073  66.2697519
  25.8560397  86.7028870  66.3306692  35.5093882  97.6131392  68.8592455
  34.5624217  97.4936744  68.7870782  35.8576655  96.7253890  68.9418717
  27.8693455  83.5025531  72.6830697  28.3927857  83.7487828  73.4457007
  27.6505788  84.3345566  72.2633835  23.2660736  85.7729206  60.5501822
  22.9373442  84.8926585  60.3676928  23.6200107  85.7176875  61.4378211
  32.5140315  97.4084109  65.0596808  32.3665278  96.4800816  65.2404378
  33.3393809  97.4304199  64.5753883  26.3802559  86.0602176  60.9177300
  26.7198632  86.5888097  60.1955908  26.8274680  86.3982582  61.6935866
  36.1174437  98.2312667  66.1461680  37.0420984  98.0255529  66.0086132
  35.9489740  97.9829068  67.0551022  29.0746000  84.4439226  70.3680368
  28.7342821  83.6447039  70.7701048  28.3685007  84.7440937  69.7957201
  29.7262472  81.5288539  68.8207691  30.5488541  81.0549017  68.6986581
  29.9700536  82.3079023  69.3206377  28.3670707  84.5576797  59.1170593
  29.0879069  84.9358050  58.6134309  27.7436011  85.2765674  59.2205571
  32.5101829  85.2621946  60.0528925  32.7265444  86.1446584  59.7517753
  32.0295897  84.8708160  59.3234567  27.2501051  88.2207659  66.6299670
  27.1045632  88.5347963  67.5223951  26.7726254  88.8392560  66.0770568
  29.1097434  85.2110207  66.6780559  29.0959002  84.3151301  66.3412857
  29.8269862  85.2180871  67.3118845  30.9623564  85.6447548  68.7233686
  30.7041342  86.5664618  68.7218017  30.4308605  85.2477982  69.4134151
  35.9069753  98.7498335  61.5023772  36.0806631  98.1844757  60.7497624
  36.3998644  99.5499230  61.3203262  21.7246713  90.7613004  69.5687331
  21.1800181  91.5372812  69.7007605  22.6026063  91.1083808  69.4106452
  28.5134330  84.0924588  61.9468129  28.6350241  83.1641234  62.1459017
  28.2236372  84.1063274  61.0346445  31.3825520  81.7779498  65.0834849
  31.4047217  81.8418831  64.1286829  31.7993579  80.9384007  65.2775355
  41.7609144  91.5134758  63.1214072  42.2040290  90.7642083  62.7233195
  40.8835655  91.5044894  62.7387804  36.8944926  98.0665099  58.6020670
  37.5895830  98.6871792  58.8207985  37.2368076  97.2160450  58.8773048
  22.5112735  89.8882900  72.4617488  21.7694471  90.0365535  73.0482118
  22.1905479  90.1491166  71.5984237  38.7936349  95.5164805  60.1308001
  39.3187673  95.8552077  59.4057321  38.7058701  94.5811820  59.9471136
  30.4556397  99.4298878  72.2597878  30.7643524  99.1848025  73.1320577
  31.2531880  99.6345517  71.7716748  27.9250882  97.1274797  66.5625556
  27.3030891  96.4645502  66.2627784  28.5955749  97.1535929  65.8799204
  21.1577954  95.6934655  65.4516816  20.3209862  95.2656830  65.2700817
  21.1301599  95.8867099  66.3887607  27.9975409  85.6056585  76.1558062
  28.0463565  86.4818708  75.7735831  28.5397923  85.0633978  75.5829705
  38.4830255  96.1497708  75.4359199  37.6925799  96.1321847  74.8963698
  38.2463609  96.6886002  76.1908235  38.6028130  92.9990175  72.7491927
  38.6526135  92.8340182  73.6907450  38.4942053  92.1317434  72.3589808
  27.4864389  95.6778720  60.0384016  27.6352509  96.3614185  59.3850689
  28.2930832  95.6583810  60.5533472  35.8931892  88.9821103  74.0651234
  36.7941755  88.8427568  73.7735232  35.9679867  89.1475558  75.0049412
  30.2274698  86.3587958  72.9104420  29.3578007  86.6521524  72.6387009
  30.4634178  86.9428403  73.6311684  40.1046327  95.4187116  72.9933949
  39.8131135  95.7817097  73.8297410  39.4918458  94.7054125  72.8147281
  41.3042009  92.9839996  65.5136519  42.1388900  93.4229800  65.6774080
  41.4401138  92.5078649  64.6944765  38.3533515  90.5419731  71.4614007
  38.8287637  90.7347377  70.6532858  37.4299080  90.5978917  71.2157391
  25.2417022  91.7043898  61.0445085  24.9963064  90.8006228  61.2425295
  25.4112936  91.7061049  60.1024563  32.9313731  82.5767574  70.4269841
  33.4495675  83.3128601  70.1016329  32.5768864  82.8831568  71.2616600
  24.5112669  87.4372256  58.5431247  23.8181914  87.5116611  57.8871283
  24.2664421  86.6732599  59.0652764  33.1826326  78.9967857  65.9470737
  33.4628079  78.3291046  66.5731164  33.9676933  79.1896953  65.4345401
  30.9859794  98.1726851  57.5095764  30.4133761  98.7917038  57.0566236
  31.5592588  98.7226213  58.0435686  37.0535184  87.4185491  69.6942313
  38.0052607  87.5183589  69.7154537  36.8838634  86.6263760  70.2040397
  35.0749563  84.5041074  69.8801713  34.4799496  84.7846087  69.1848202
  34.7899260  84.9934975  70.6518455  34.2057054  98.4564001  58.6404346
  35.1387727  98.3909563  58.8437222  34.1180267  99.2920268  58.1818879
  36.8345071  97.7729871  55.6008294  36.7558702  97.4389735  56.4944052
  37.6554737  98.2651639  55.5999766  39.5323262  90.6391611  68.8084612
  39.4999582  89.7007611  68.9944296  40.1423885  90.7175647  68.0750437
  31.3706593  89.5087664  54.8511816  32.3165697  89.3793872  54.9200234
  30.9920838  88.7702326  55.3281244  39.6817750  87.4302654  68.8542895
  39.1656799  86.6461111  68.6672824  40.5657699  87.1021371  69.0189415
  37.3428477  81.1743670  64.8138708  37.1453298  80.8658758  65.6982040
  37.9528183  81.9005309  64.9436638  45.3499812  91.7007617  67.9490649
  46.0803200  91.4392906  68.5098352  44.7406757  90.9636339  67.9892717
  43.4315109  89.8415480  68.5465100  42.7048272  89.7071445  67.9381592
  43.0162396  90.1492309  69.3521818  31.2545285  93.5605410  76.3112473
  32.1748295  93.7384009  76.5052520  31.2194868  92.6161455  76.1592172
  29.5549510  87.4337640  54.7866701  28.6480965  87.1370753  54.8629415
  29.8325491  87.1367458  53.9200988  20.4727450  88.7544003  65.2365748
  20.1530235  87.9009312  64.9440122  19.9260878  88.9692582  65.9923715
  24.2507358  91.4706444  68.9535254  24.4693367  92.4023552  68.9723288
  24.6633132  91.1114419  69.7390058  31.1711576  81.9774530  60.9410943
  30.3612304  81.6321615  61.3166189  31.8595992  81.6682073  61.5298554
  33.1002124  81.0552577  62.5635239  33.6533162  81.4748030  63.2225263
  33.3372210  80.1288325  62.6058195  29.1235223  87.0439650  78.3438003
  29.0231950  87.9934007  78.2750094  28.9056765  86.7157889  77.4714073
  28.3248294  84.2924575  54.9278681  29.1867458  84.6179474  55.1874498
  28.5098639  83.5056071  54.4151746  20.3415710  92.3746915  67.2058869
  19.6479182  91.9600868  66.6928824  21.0888701  92.4167451  66.6092288
  36.4780931  83.1653102  62.0713904  35.8979600  83.8237906  61.6891956
  36.2116864  82.3430446  61.6601321  34.9284497  82.5658159  64.2735224
  35.4284276  82.6774694  63.4649543  35.5720105  82.2619212  64.9136032
  28.9866493  90.4736789  77.1603065  28.5033575  91.2737149  77.3666954
  29.0727432  90.4844734  76.2070509  22.2552453  92.3065169  65.0824884
  22.2323141  92.4052856  64.1306767  22.5653089  93.1530319  65.4042050
  24.9139831  94.3641324  69.1971499  25.8683084  94.3325266  69.1301430
  24.7152354  93.9031947  70.0121725  25.5039213  92.9342440  71.7642296
  26.3232102  93.4286518  71.7877134  25.7776020  92.0174408  71.7359864
  35.2605809  85.3253192  61.1270252  34.3731664  85.6102843  60.9090447
  35.6759798  85.1646955  60.2797529  38.6120345  85.3499713  64.8424591
  39.3880735  85.8396166  65.1149208  37.8868479  85.7757767  65.2996461
  41.0492904  86.0627332  65.8998532  41.6437394  85.8223068  65.1891840
  41.1219487  85.3434463  66.5272068  34.4049022  95.0897867  55.2218272
  35.1084872  95.2947869  55.8375928  33.6811671  95.6574629  55.4867355
  35.2346833  90.8407728  61.3420542  35.1782034  91.2976279  60.5028174
  35.7875175  90.0798413  61.1643385  39.0451639  86.6297460  62.1670662
  38.7888573  86.2294096  62.9978869  38.4204507  87.3441254  62.0420801
  43.3563976  89.3693533  64.6741953  42.7963534  89.4386722  65.4473515
  42.7507480  89.1934518  63.9541449  36.3135720  95.5280396  57.2716732
  37.1481324  95.0961594  57.0894207  36.1520063  95.3562410  58.1993626
  35.9681612  92.0312509  58.6373071  35.9130416  91.8656781  57.6961515
  35.3427667  92.7388542  58.7935261  20.7574127  87.2680574  72.4634493
  21.4032991  86.7579528  72.9521719  20.5491278  88.0049255  73.0377919
  33.2827519  94.3361421  77.9626634  34.1518679  94.5102073  77.6013269
  32.8034271  95.1555838  77.8402363  29.2777737  81.5320618  58.2158390
  29.2656407  82.4762458  58.3726661  30.1701159  81.3490764  57.9217851
  33.0929857  78.1263395  62.4704326  32.3262253  77.5721882  62.6161009
  33.5040562  78.1985264  63.3318478  25.0971618  84.4148191  76.5609508
  25.9603079  84.0584996  76.7712832  24.5237029  84.0762086  77.2484912
  44.4961263 103.7701501  64.4425117  45.2824353 103.3520924  64.0915534
  44.7599968 104.6747593  64.6106765  49.8969690 103.7076734  65.3458095
  50.6294862 103.1375951  65.5795925  49.1409046 103.3198335  65.7864601
  47.4195111  97.4198308  69.8052704  47.0878436  98.2893719  69.5813919
  46.8240724  97.1034592  70.4846734  41.1551297 101.1593875  57.5382786
  41.3225700 102.0274112  57.9053257  40.9648466 101.3221157  56.6144075
  47.3123774 102.1393394  66.8846054  46.4040651 102.0708803  66.5904815
  47.2611370 102.6165339  67.7127879  49.1785421 100.3409833  68.6623928
  48.5359801 100.6342366  68.0163722  48.6740349 100.2262753  69.4677125
  46.8325584 104.0873006  59.3509787  47.7443440 104.3200393  59.1757485
  46.3235231 104.6710050  58.7884866  41.4697422 103.4470241  70.3604637
  42.3158617 103.8709654  70.5039286  41.4096060 102.7903865  71.0543200
  44.6196867 101.1074609  72.0185810  44.3757799 101.8616669  71.4820086
  44.8956798 101.4859957  72.8533057  44.1761559 100.2631042  67.5999648
  43.3146038 100.5612296  67.8916386  44.2023994 100.4801441  66.6680681
  55.7787151 106.8723925  65.2170405  55.0250859 106.3031323  65.0614409
  55.9134692 106.8386590  66.1641039  37.6553119  97.8228907  77.5539479
  37.2620064  97.2695106  78.2287123  38.4719259  98.1339486  77.9445997
  40.5721080  99.2386786  75.1459736  41.3130793  99.8393940  75.0664198
  40.8039003  98.4964424  74.5877778  44.5178243  95.2667889  69.4224017
  44.1742512  96.1569531  69.3463128  44.8857205  95.0769547  68.5593602
  42.0675636 100.1026201  62.9881691  41.2117233  99.7133052  62.8087330
  42.4802588 100.1818162  62.1281477  43.5974783  97.6372545  67.3873251
  43.0939579  97.6002680  66.5741056  43.8905390  98.5465287  67.4469907
  39.8417669  97.7211274  66.3939432  40.7070666  97.5254083  66.0345322
  39.9095178  97.4921626  67.3208789  44.2714829 103.1303593  59.7556234
  43.9664964 103.4449742  60.6066377  45.2245271 103.2085012  59.7983567
  37.4479988  99.9513482  63.7655799  38.0223740  99.7288664  63.0328992
  38.0350970 100.0202177  64.5184401  39.7502656  96.8254731  62.4930869
  39.0967068  96.5103748  61.8687483  39.7083130  96.2030472  63.2190692
  42.9840396 103.3136665  66.8178516  42.0662957 103.5351612  66.6600204
  43.4000540 103.3882975  65.9590224  46.2154281 101.7485197  63.9299986
  45.4777038 101.2362583  64.2610228  46.4681055 101.3085578  63.1183263
  46.3165908  94.5261449  64.5241755  46.6224785  93.6658812  64.2367670
  47.0418513  95.1179069  64.3240749  44.1253560 103.9034126  71.6223219
  44.4802947 104.1305599  72.4817685  44.7725691 104.2352503  71.0000474
  38.0193423 101.0110657  68.4069560  38.6592802 100.8699416  67.7092523
  37.1870953 100.7245170  68.0308162  42.3972536  99.0210680  72.3707032
  41.7500452  99.7200630  72.2771509  43.1673552  99.4546824  72.7383280
  38.2385696 102.3676519  72.4223128  37.7023053 101.9167258  73.0744724
  37.6502405 102.5022428  71.6793592  37.6487955 101.8265171  54.9849591
  36.7717422 101.7053971  54.6211838  38.1245708 101.0351249  54.7328480
  44.1448531  99.9886090  64.8746317  44.6417231  99.2356053  64.5547387
  43.3735513 100.0250407  64.3089527  51.9978289 105.6926456  66.5164609
  51.9868165 106.5751171  66.1458542  51.1295668 105.3398007  66.3219146
  40.7283500 102.1303473  64.6018002  40.3581288 101.5774514  65.2898907
  41.2242593 101.5261607  64.0493002  48.6150864 104.5875097  62.9834775
  49.0811316 105.4203089  62.9095077  49.0658364 104.1220079  63.6880033
  46.5867526  96.9555684  67.0225676  45.6730606  97.1859911  67.1907883
  47.0160628  97.0394128  67.8739708  36.1248834  99.5407464  70.8471108
  36.1890160 100.4022295  70.4348506  36.0615954  98.9281466  70.1143466
  35.6001106 101.6130597  74.4944142  36.2273145 101.2307674  75.1081666
  34.7429025 101.3944799  74.8599835  38.7087210  98.8317449  72.6830697
  39.2321612  99.0779746  73.4457007  38.4899543  99.6637484  72.2633835
  34.1054491 101.1021124  60.5501822  33.7767197 100.2218502  60.3676928
  34.4593861 101.0468792  61.4378211  37.2196314 101.3894093  60.9177300
  37.5592386 101.9180015  60.1955908  37.6668434 101.7274499  61.6935866
  39.9139755  99.7731144  70.3680368  39.5736575  98.9738957  70.7701048
  39.2078761 100.0732855  69.7957201  40.5656227  96.8580456  68.8207691
  41.3882296  96.3840935  68.6986581  40.8094290  97.6370940  69.3206377
  39.2064461  99.8868715  59.1170593  39.9272824 100.2649968  58.6134309
  38.5829765 100.6057592  59.2205571  43.3495584 100.5913864  60.0528925
  43.5659198 101.4738502  59.7517753  42.8689651 100.2000077  59.3234567
  39.9491188 100.5402125  66.6780559  39.9352757  99.6443218  66.3412857
  40.6663616 100.5472789  67.3118845  41.8017319 100.9739465  68.7233686
  41.5435097 101.8956536  68.7218017  41.2702359 100.5769900  69.4134151
  39.3528084  99.4216505  61.9468129  39.4743995  98.4933152  62.1459017
  39.0630127  99.4355191  61.0346445  42.2219275  97.1071416  65.0834849
  42.2440971  97.1710749  64.1286829  42.6387334  96.2675924  65.2775355
  52.6002899 106.8426675  63.1214072  53.0434045 106.0934001  62.7233195
  51.7229409 106.8336812  62.7387804  38.8369164 100.9348503  76.1558062
  38.8857319 101.8110626  75.7735831  39.3791678 100.3925896  75.5829705
  46.7325647 104.3113020  74.0651234  47.6335510 104.1719485  73.7735232
  46.8073621 104.4767475  75.0049412  41.0668452 101.6879875  72.9104420
  40.1971762 101.9813441  72.6387009  41.3027932 102.2720320  73.6311684
  49.1927269 105.8711649  71.4614007  49.6681391 106.0639295  70.6532858
  48.2692835 105.9270834  71.2157391  43.7707486  97.9059492  70.4269841
  44.2889430  98.6420519  70.1016329  43.4162619  98.2123485  71.2616600
  44.0220080  94.3259775  65.9470737  44.3021834  93.6582964  66.5731164
  44.8070687  94.5188870  65.4345401  47.8928938 102.7477409  69.6942313
  48.8446361 102.8475506  69.7154537  47.7232389 101.9555677  70.2040397
  45.9143318  99.8332992  69.8801713  45.3193250 100.1138005  69.1848202
  45.6293015 100.3226893  70.6518455  50.3717016 105.9683528  68.8084612
  50.3393336 105.0299529  68.9944296  50.9817640 106.0467565  68.0750437
  50.5211505 102.7594572  68.8542895  50.0050553 101.9753028  68.6672824
  51.4051453 102.4313288  69.0189415  48.1822232  96.5035587  64.8138708
  47.9847053  96.1950676  65.6982040  48.7921937  97.2297226  64.9436638
  56.1893566 107.0299535  67.9490649  56.9196955 106.7684823  68.5098352
  55.5800512 106.2928257  67.9892717  54.2708863 105.1707398  68.5465100
  53.5442027 105.0363363  67.9381592  53.8556150 105.4784226  69.3521818
  40.3943264 102.7629558  54.7866701  39.4874720 102.4662670  54.8629415
  40.6719245 102.4659376  53.9200988  42.0105330  97.3066447  60.9410943
  41.2006058  96.9613532  61.3166189  42.6989747  96.9973991  61.5298554
  43.9395878  96.3844494  62.5635239  44.4926917  96.8039948  63.2225263
  44.1765965  95.4580242  62.6058195  39.1642049  99.6216493  54.9278681
  40.0261213  99.9471391  55.1874498  39.3492393  98.8347989  54.4151746
  47.3174685  98.4945019  62.0713904  46.7373354  99.1529823  61.6891956
  47.0510618  97.6722364  61.6601321  45.7678252  97.8950077  64.2735224
  46.2678030  98.0066612  63.4649543  46.4113860  97.5911130  64.9136032
  46.0999563 100.6545110  61.1270252  45.2125418 100.9394760  60.9090447
  46.5153552 100.4938873  60.2797529  49.4514100 100.6791631  64.8424591
  50.2274490 101.1688083  65.1149208  48.7262234 101.1049685  65.2996461
  51.8886658 101.3919250  65.8998532  52.4831149 101.1514986  65.1891840
  51.9613242 100.6726381  66.5272068  49.8845393 101.9589378  62.1670662
  49.6282327 101.5586013  62.9978869  49.2598261 102.6733171  62.0420801
  54.1957731 104.6985451  64.6741953  53.6357289 104.7678640  65.4473515
  53.5901234 104.5226435  63.9541449  40.1171492  96.8612536  58.2158390
  40.1050162  97.8054376  58.3726661  41.0094914  96.6782681  57.9217851
  43.9323611  93.4555313  62.4704326  43.1656007  92.9013799  62.6161009
  44.3434316  93.5277181  63.3318478  35.9365372  99.7440108  76.5609508
  36.7996834  99.3876913  76.7712832  35.3630783  99.4054003  77.2484912
   1.5844978  21.7344499  54.0917215   2.2223388  21.6151246  53.3880555
   1.4665821  22.6825343  54.1505167   1.1386247  19.4595953  51.1670423
   1.9249336  19.0415376  50.8160840   1.4024951  20.3642045  51.3352072
   1.3096324  24.8968803  45.8659080   0.6742157  24.9703430  46.5779985
   0.9793730  25.4862402  45.1878159   6.5394674  19.3971186  52.0703402
   7.2719846  18.8270403  52.3041231   5.7834029  19.0092786  52.5109907
   3.9548757  17.8287846  53.6091361   3.0465635  17.7603255  53.3150122
   3.9036353  18.3059791  54.4373186   5.8210404  16.0304285  55.3869234
   5.1784784  16.3236818  54.7409029   5.3165332  15.9157205  56.1922431
   3.4750568  19.7767458  46.0755094   4.3868424  20.0094845  45.9002791
   2.9660215  20.3604502  45.5130172   1.7591335  24.1992086  59.7116386
   2.1674691  23.7574496  58.9671019   1.0368597  23.6244713  59.9650579
   2.0820150  24.7593276  53.4668675   1.4529012  24.9238990  52.7644743
   1.6945812  25.1734886  54.2379639   5.9609382  25.6947714  50.8213039
   5.2760420  26.0746616  50.2710072   6.0453231  26.3043041  51.5544987
   1.2621851  16.7969061  58.7431117   1.0182782  17.5511121  58.2065393
   1.5381781  17.1754408  59.5778364   3.2160313  23.3407673  57.4208382
   3.4277209  23.9839433  56.7442764   3.1690062  22.5069990  56.9530313
   4.3306141  26.2179629  55.5930740   5.1523585  25.8159816  55.3113421
   4.3268544  26.1147863  56.5446856  12.4212134  22.5618377  51.9415711
  11.6675843  21.9925775  51.7859716  12.5559676  22.5281042  52.8886346
   1.5360477  28.3358146  59.7752174   1.5178952  29.1567027  59.2832443
   2.4580397  28.2112221  60.0002315   6.0987783  23.7003307  46.5894933
   5.3217226  23.3614467  46.1450095   6.7779264  23.7055930  45.9149898
   4.3379090  23.1737288  53.2461541   3.6802764  23.8636550  53.3341669
   5.1419489  23.5633720  53.5895527   3.1484549  21.5281661  51.2965482
   3.6616430  22.1611653  51.7987192   3.7985772  20.9282856  50.9308842
   3.9146345  26.5087662  49.4244625   3.4608672  25.6678572  49.4809816
   3.2840311  27.1449061  49.7619405   2.8579264  17.4379648  50.6545293
   2.1202021  16.9257035  50.9855535   3.1106038  16.9980030  49.8428569
   2.3579284  28.3464159  50.3594443   2.6502258  28.9069216  49.6406809
   2.8677905  28.6392720  51.1147602   0.7678543  19.5928578  58.3468526
   1.1227931  19.8200051  59.2062991   1.4150674  19.9246955  57.7245781
   6.4976280  22.7147014  49.0517855   6.3594178  22.9048610  48.1239044
   6.1412499  23.4766396  49.5085906   6.5245659  24.7823541  54.0629126
   6.9582166  24.6898830  54.9112180   7.2377240  24.7581041  53.4249142
   7.3861209  24.8247241  56.5962012   7.5797099  25.7293052  56.8421286
   7.2861827  24.3654660  57.4300597   2.4476318  24.9753984  62.1702892
   2.2961824  24.7464536  61.2532976   2.4380997  25.9324585  62.1834237
   2.5014393  23.2974198  42.5873594   1.8843563  22.5721026  42.4906646
   2.0330881  24.0583559  42.2440668   4.1568524  28.0073107  60.2479374
   4.0981071  27.3232327  59.5809957   4.5588043  28.7492097  59.7960000
   4.1585932  25.9712691  58.4793354   3.2712710  25.6338612  58.6019753
   4.7284483  25.2395722  58.7162119   8.6403272  21.3820908  53.2409915
   8.6293148  22.2645623  52.8703848   7.7720652  21.0292459  53.0464452
   1.8703295  24.4352230  49.1730047   0.9359574  24.5553692  49.0034752
   2.0479964  23.5324696  48.9090057   5.2575847  20.2769549  49.7080081
   5.7236299  21.1097540  49.6340384   5.7083347  19.8114530  50.4125340
   3.3252078  26.6213370  46.7066233   3.6011922  26.5069965  47.6160108
   2.4556577  26.2230855  46.6678407   2.9998968  20.8340028  56.2470877
   2.3470418  21.0815935  55.5923330   3.3779348  20.0204166  55.9133354
   2.6420198  27.7088024  62.8243184   3.1860102  28.3217982  62.3298139
   2.0607043  28.2667602  63.3410197   0.9277711  30.8308742  53.9558212
   0.8028851  30.0298482  53.4469157   1.5856802  31.3254935  53.4672182
   2.9912620  28.6317762  55.5837762   2.0442955  28.5123113  55.5116089
   3.3395393  27.7440260  55.6664024   3.5993175  29.2499037  52.8706987
   4.5239722  29.0441898  52.7331438   3.4308478  29.0015438  53.7796329
   3.3888491  29.7684704  48.2269079   3.5625369  29.2031127  47.4742931
   3.8817382  30.5685599  48.0448568   9.2427882  22.5321127  49.8459378
   9.6859028  21.7828452  49.4478502   8.3654392  22.5231264  49.4633110
   4.3763663  29.0851469  45.3265977   5.0714568  29.7058161  45.5453291
   4.7186814  28.2346820  45.6018355   6.2755087  26.5351174  46.8553308
   6.8006411  26.8738447  46.1302628   6.1877439  25.5998190  46.6716442
   5.9648993  27.1684078  62.1604506   5.1744536  27.1508217  61.6209005
   5.7282347  27.7072372  62.9153542   6.0846868  24.0176544  59.4737234
   6.1344873  23.8526552  60.4152757   5.9760791  23.1503803  59.0835115
   3.3750630  20.0007472  60.7896541   4.2760493  19.8613937  60.4980539
   3.4498605  20.1661927  61.7294718   7.5865065  26.4373486  59.7179256
   7.2949873  26.8003466  60.5542717   6.9737196  25.7240494  59.5392588
   8.7860747  24.0026366  52.2381826   9.6207638  24.4416170  52.4019386
   8.9219876  23.5265019  51.4190072   5.8352253  21.5606100  58.1859314
   6.3106374  21.7533747  57.3778165   4.9117818  21.6165286  57.9402697
   4.5353922  18.4371861  56.4187619   5.4871345  18.5369958  56.4399843
   4.3657372  17.6450129  56.9285704   2.5568301  15.5227444  56.6047020
   1.9618233  15.8032456  55.9093509   2.2717998  16.0121345  57.3763761
   1.6875792  29.4750371  45.3649653   2.6206465  29.4095932  45.5682528
   1.5999005  30.3106637  44.9064185   4.3163808  28.7916241  42.3253600
   4.2377440  28.4576105  43.2189358   5.1373475  29.2838009  42.3245073
   7.0142000  21.6577980  55.5329919   6.9818320  20.7193981  55.7189603
   7.6242623  21.7362017  54.7995744   7.1636488  18.4489024  55.5788202
   6.6475537  17.6647480  55.3918131   8.0476437  18.1207740  55.7434721
  12.8318549  22.7193987  54.6735956  13.5621938  22.4579275  55.2343659
  12.2225495  21.9822709  54.7138024  10.9133847  20.8601850  55.2710407
  10.1867010  20.7257815  54.6626898  10.4981133  21.1678678  56.0767125
   2.7424547  16.3439562  47.8515559   1.8550402  16.6289212  47.6335753
   3.1578536  16.1833325  47.0042835   6.0939083  16.3686083  51.5669898
   6.8699473  16.8582535  51.8394515   5.3687217  16.7944137  52.0241767
   8.5311641  17.0813702  52.6243838   9.1256132  16.8409438  51.9137147
   8.6038225  16.3620832  53.2517375   1.8867760  26.1084236  41.9463579
   2.5903610  26.3134239  42.5621234   1.1630409  26.6760998  42.2112662
   2.7165570  21.8594098  48.0665849   2.6600772  22.3162649  47.2273481
   3.2693913  21.0984782  47.8888691   6.5270376  17.6483829  48.8915968
   6.2707311  17.2480465  49.7224176   5.9023244  18.3627623  48.7666107
  10.8382714  20.3879903  51.3987260  10.2782272  20.4573092  52.1718822
  10.2326218  20.2120887  50.6786756   3.7954458  26.5466766  43.9962039
   4.6300061  26.1147964  43.8139513   3.6338800  26.3748779  44.9238933
   3.4500350  23.0498879  45.3618378   3.3949154  22.8843150  44.4206822
   2.8246405  23.7574912  45.5180568  12.4238733  37.0636417  54.0917215
  13.0617143  36.9443164  53.3880555  12.3059576  38.0117261  54.1505167
   9.2328439  37.0163845  54.0278740   8.8946950  36.9004909  53.1399275
  10.1018207  36.6155010  54.0079746   5.0915255  38.8699321  50.0175631
   4.5280120  38.7789258  49.2491919   4.9767650  38.0499226  50.4978124
   9.7148222  38.1698696  59.9864946   9.7036863  37.7751495  59.1145449
   9.8768861  37.4364769  60.5798717   2.6379687  40.3650513  52.8559851
   3.4300978  40.0241337  52.4406151   2.8776337  40.4745488  53.7762005
  10.6714813  42.5370289  45.3290096  10.0202793  43.1224369  44.9424110
  11.4659176  43.0676484  45.3885133   4.5970440  39.6259426  45.7277230
   5.3701316  39.0788413  45.5890106   4.9495839  40.4903675  45.9391692
   6.4355483  40.9535808  58.9344130   6.1445349  41.8581439  58.8190796
   7.0712467  40.9952336  59.6488199   7.3611690  38.3312657  55.5245489
   7.9575262  38.1068679  54.8102452   7.4186661  37.5897402  56.1270937
   6.9336718  35.7852092  43.3595680   7.1862239  35.2633613  42.5979143
   5.9961277  35.6218238  43.4622364  11.9780001  34.7887870  51.1670423
  12.7643090  34.3707294  50.8160840  12.2418705  35.6933963  51.3352072
  12.1490078  40.2260721  45.8659080  11.5135911  40.2995347  46.5779985
  11.8187485  40.8154320  45.1878159  17.3788428  34.7263104  52.0703402
  18.1113600  34.1562320  52.3041231  16.6227784  34.3384704  52.5109907
   6.6533007  37.6880198  45.5620055   6.5369265  37.0125101  46.2301139
   6.7635267  37.2012572  44.7452208   8.9964548  37.1490345  49.2666744
   8.6322755  36.6220966  49.9779666   9.8531664  36.7588814  49.0933230
  14.9013849  28.4384678  56.5298010  14.5697173  29.3080089  56.3059225
  14.3059462  28.1220962  57.2092041   8.6370035  32.1780245  44.2628093
   8.8044437  33.0460481  44.6298564   8.4467204  32.3407527  43.3389382
  11.3945368  40.6397224  55.9293923  11.0946091  41.5422263  55.8209730
  11.0496428  40.3729407  56.7815076   4.8457850  37.0911021  51.9630628
   3.9208346  36.9587235  52.1708319   5.0942263  37.8705240  52.4600570
  14.7942512  33.1579764  53.6091361  13.8859389  33.0895172  53.3150122
  14.7430108  33.6351709  54.4373186   8.6159256  34.6337902  45.2474760
   8.4958881  35.0794953  46.0860240   7.9211844  34.9823220  44.6888298
   2.2066661  36.7344294  52.7974417   2.3359042  36.9878773  53.7113828
   1.5264112  37.3272002  52.4779072   6.3766148  47.4041544  48.8964891
   6.2990178  48.3549369  48.9753371   5.7727792  47.0587417  49.5539817
   8.8683378  34.5769410  61.5526258   8.0916712  35.1363330  61.5429122
   9.5073941  35.0626193  62.0741128  16.6604158  31.3596202  55.3869234
  16.0178539  31.6528736  54.7409029  16.1559087  31.2449123  56.1922431
  14.3144322  35.1059376  46.0755094  15.2262178  35.3386762  45.9002791
  13.8053969  35.6896420  45.5130172   7.1229750  37.3854863  61.1144225
   7.8644434  37.9239907  60.8379048   6.4166735  38.0121152  61.2715777
  12.5985090  39.5284003  59.7116386  13.0068446  39.0866414  58.9671019
  11.8762351  38.9536631  59.9650579   8.9516160  34.4656610  57.0849943
   9.7977355  34.8896024  57.2284592   8.8914797  33.8090234  57.7788506
  12.9213904  40.0885194  53.4668675  12.2922767  40.2530908  52.7644743
  12.5339566  40.5026804  54.2379639  16.8003136  41.0239632  50.8213039
  16.1154174  41.4038533  50.2710072  16.8846986  41.6334959  51.5544987
  12.1015605  32.1260979  58.7431117  11.8576537  32.8803039  58.2065393
  12.3775536  32.5046326  59.5778364  14.0554068  38.6699591  57.4208382
  14.2670963  39.3131351  56.7442764  14.0083816  37.8361907  56.9530313
  11.6580297  31.2817412  54.3244955  10.7964776  31.5798665  54.6161692
  11.6842731  31.4987810  53.3925987   8.4741866  39.8259602  50.7318760
   8.9380212  40.1047305  49.9423383   8.2098664  38.9243047  50.5491851
   5.3665947  39.3731084  53.6698524   5.9367304  39.8018352  53.0316008
   5.9574059  39.0913668  54.3682709   7.4110752  35.9482754  47.5408325
   8.1134796  36.4003798  48.0082252   7.0791381  35.3066573  48.1688219
   5.8591114  34.5394511  61.9159535   5.2289774  35.2210792  62.1494932
   5.7527202  34.4277593  60.9712673  15.1699896  41.5471546  55.5930740
  15.9917339  41.1451734  55.3113421  15.1662299  41.4439780  56.5446856
   3.1050832  34.5710886  49.8008936   2.3081995  34.6829581  50.3192431
   2.8776424  34.9097539  48.9349826   8.9356499  41.0955590  57.7491450
   9.0000932  41.5575997  58.5849622   8.2267423  40.4652955  57.8773760
   8.6504517  42.7623697  47.6170431   8.5150192  43.6075233  48.0455278
   9.1914329  42.9642975  46.8536364   5.1371856  28.8415277  64.2784786
   4.7438802  28.2881475  64.9532430   5.9537997  29.1525855  64.6691303
   2.1033914  40.2799135  48.1898356   2.6158435  41.0742385  48.3403920
   2.7556627  39.5825426  48.1231957   3.9128799  43.3964891  50.2721109
   4.0895427  44.3182856  50.0842093   4.7085632  43.0823311  50.7015489
   8.0539817  30.2573156  61.8705042   8.7949531  30.8580309  61.7909505
   8.2857740  29.5150794  61.3123085   3.1981156  35.4429523  60.1483272
   3.0834671  34.5414781  60.4490371   2.3425673  35.6893220  59.7968089
  10.2772993  43.3847264  61.7470773   9.8336847  42.5983642  61.4291677
  10.9390207  43.5726414  61.0814664   5.0360114  44.9143065  56.2731451
   5.5867540  44.7860129  55.5008445   4.1971590  45.2137954  55.9226344
  12.3754231  43.6650064  59.7752174  12.3572707  44.4858945  59.2832443
  13.2974151  43.5404139  60.0002315   8.8327285  41.1794193  60.6175682
   9.3655622  40.4182481  60.3874990   8.3041367  40.8867845  61.3599837
  11.9996980  26.2854259  56.1469324  11.6561250  27.1755901  56.0708435
  12.3675943  26.0955917  55.2838909  11.9647263  36.2762870  44.6541759
  11.4493887  37.0467475  44.8930147  11.6924572  35.6028006  45.2774821
   9.5494374  31.1212571  49.7126998   8.6935971  30.7319421  49.5332636
   9.9621326  31.2004532  48.8526783  11.0793521  28.6558914  54.1118557
  10.5758316  28.6189049  53.2986363  11.3724128  29.5651657  54.1715214
   7.3236407  28.7397644  53.1184739   8.1889403  28.5440453  52.7590629
   7.3913916  28.5107996  54.0454096  16.9381537  39.0295225  46.5894933
  16.1610980  38.6906384  46.1450095  17.6173018  39.0347848  45.9149898
  11.7533566  34.1489962  46.4801540  11.4483702  34.4636111  47.3311684
  12.7064008  34.2271382  46.5228873  10.1979998  40.3080185  48.1294494
   9.6701360  39.5732945  47.8167732   9.6967501  41.0854862  47.8834463
  15.1772844  38.5029206  53.2461541  14.5196519  39.1928467  53.3341669
  15.9813243  38.8925638  53.5895527   4.9298726  30.9699852  50.4901106
   5.5042478  30.7475033  49.7574299   5.5169708  31.0388546  51.2429707
  13.9878303  36.8573579  51.2965482  14.5010185  37.4903570  51.7987192
  14.6379527  36.2574774  50.9308842   5.2568313  33.0004313  44.5096991
   4.4205625  33.3378999  44.8306266   5.1173083  32.8653293  43.5724128
   7.2321393  27.8441101  49.2176175   6.5785806  27.5290118  48.5932790
   7.1901868  27.2216841  49.9435998   8.3432598  38.1260396  41.1329467
   7.4359660  37.8949649  41.3320616   8.8403630  37.3298015  41.3203449
  11.2500677  46.8357903  44.0526154  10.5762376  47.1389600  44.6611111
  11.6366499  47.6386983  43.7031611  10.4659134  34.3323034  53.5423823
   9.5481695  34.5537981  53.3845511  10.8819277  34.4069345  52.6835530
  11.2494182  35.7314450  48.6726503  11.9966001  36.2435847  48.3633625
  11.5185771  35.4098503  49.5330897   9.5220832  38.2272991  45.6553458
   8.6132051  37.9432023  45.7525927   9.5515916  38.6472069  44.7956764
  14.7540099  41.8379580  49.4244625  14.3002426  40.9970490  49.4809816
  14.1234066  42.4740978  49.7619405  13.6973019  32.7671566  50.6545293
  12.9595776  32.2548952  50.9855535  13.9499792  32.3271948  49.8428569
  13.1973038  43.6756077  50.3594443  13.4896013  44.2361134  49.6406809
  13.7071659  43.9684638  51.1147602  13.7984646  25.5447818  51.2487062
  14.1043523  24.6845182  50.9612977  14.5237251  26.1365438  51.0486056
   8.0705726  35.8401611  51.7563253   8.1254336  34.8875448  51.6805729
   7.2596928  35.9961050  52.2404551   9.2196920  39.7681734  42.9941536
   8.7816350  39.0517593  42.5347173   9.9607360  39.9957849  42.4326627
   6.0098086  34.4578671  49.5153632   5.1965951  34.7572842  49.9218824
   6.5057080  34.0634360  50.2328114   8.1606664  44.4536428  51.4487896
   8.1182842  44.6797274  50.5196428   9.0769362  44.2199802  51.5973698
  11.6072297  34.9220495  58.3468526  11.9621685  35.1491969  59.2062991
  12.2544429  35.2538872  57.7245781  17.3370034  38.0438931  49.0517855
  17.1987933  38.2340527  48.1239044  16.9806253  38.8058314  49.5085906
   5.5012161  32.0297026  55.1314867   6.1411540  31.8885786  54.4337830
   4.6689691  31.7431540  54.7553469  17.3639414  40.1115458  54.0629126
  17.7975921  40.0190747  54.9112180  18.0770995  40.0872959  53.4249142
   6.2772464  41.3299457  51.2449859   7.0713063  40.8349777  51.0432434
   5.5664157  40.8017320  50.8817565  11.0967309  43.7117552  55.5962227
  11.1504331  44.2808489  56.3639943  10.2282090  43.8819437  55.2316264
   2.5855228  35.4742539  47.3209612   1.6552816  35.4126994  47.5379574
   2.6812700  34.9518491  46.5246253   2.5040777  31.9997351  49.9087853
   2.7647594  32.9142685  49.7997014   3.3257949  31.5321794  50.0584466
   3.9765702  33.4135109  57.0786678   4.6488756  33.2052471  56.4299327
   3.1495489  33.2157195  56.6391910   9.8791274  30.0397050  59.0952339
   9.2319189  30.7386999  59.0016815  10.6492290  30.4733193  59.4628587
  13.2870072  40.3045902  62.1702892  13.1355579  40.0756453  61.2532976
  13.2774752  41.2616503  62.1834237  10.0555409  37.8777814  57.1549159
  10.9847469  38.0288974  56.9818126   9.6346439  37.9661835  56.2997805
   8.8543740  41.9028479  54.9247696   8.7154826  41.5347263  55.7973634
   8.0658337  42.4176118  54.7531654   9.4491892  47.0037575  46.2673233
   9.6243648  46.5325619  47.0818855   8.7624680  47.6303342  46.4954493
  10.4048956  41.2810082  52.3136534  10.0698788  41.2410852  53.2094184
   9.9052901  40.6154798  51.8406944   4.3793200  36.6877712  57.8389115
   4.2412997  35.9557950  58.4400654   5.2898123  36.5986612  57.5573303
  13.3408147  38.6266116  42.5873594  12.7237318  37.9012944  42.4906646
  12.8724636  39.3875476  42.2440668   7.0075500  36.3997671  57.3272795
   7.7175119  35.7590863  57.2859413   6.9644808  36.6510566  58.2498976
  14.9962279  43.3365024  60.2479374  14.9374825  42.6524244  59.5809957
  15.3981797  44.0784014  59.7960000   5.7204434  33.3862889  59.1468434
   5.1841791  32.9353627  59.7990031   5.1321143  33.5208798  58.4038899
   4.0152978  50.1526938  53.0413093   4.2549576  50.7845462  53.7192111
   3.1722174  49.8014978  53.3278452   5.1306693  32.8451540  41.7094898
   4.2536159  32.7240341  41.3457145   5.6064446  32.0537619  41.4573787
  14.9979686  41.3004608  58.4793354  14.1106465  40.9630530  58.6019753
  15.5678237  40.5687639  58.7162119   1.4543555  32.5218897  56.2321429
   1.3701744  31.9144566  55.4971839   0.6326262  33.0127915  56.2330925
   8.5280840  45.9606061  55.4454597   8.4551011  46.7661032  55.9573901
   8.0858233  46.1598026  54.6202618   8.3170619  45.1977831  48.9557418
   7.5338141  45.7399511  49.0495643   9.0163364  45.7151810  49.3551660
  11.6267269  31.0072460  51.5991624  12.1235969  30.2542422  51.2792694
  10.8554251  31.0436777  51.0334833  10.9879523  45.8592895  57.6012756
  11.7007495  46.4940359  57.5288657  10.4969552  45.9556761  56.7852757
  12.7097050  39.7644147  49.1730047  11.7753329  39.8845610  49.0034752
  12.8873718  38.8616614  48.9090057   8.2102238  33.1489843  51.3263308
   7.8400026  32.5960883  52.0144214   8.7061330  32.5447977  50.7738308
  16.0969601  35.6061467  49.7080081  16.5630054  36.4389458  49.6340384
  16.5477102  35.1406448  50.4125340   6.0391437  43.6087338  58.4218326
   6.7400896  44.2423821  58.5747721   5.5686552  43.9502070  57.6613966
  14.1645832  41.9505288  46.7066233  14.4405676  41.8361882  47.6160108
  13.2950331  41.5522773  46.6678407  13.8392723  36.1631946  56.2470877
  13.1864173  36.4107853  55.5923330  14.2173102  35.3496084  55.9133354
  10.7999896  46.1991639  50.3499047  10.9822291  45.3813295  50.8126799
  11.6232882  46.4159331  49.9123937  11.1342062  45.1259824  47.6114096
  11.6629828  44.6152278  46.9984258  11.3970282  44.8102354  48.4759629
   9.8880296  36.9051757  62.7336914   9.2120933  36.8045886  63.4039289
  10.7107929  36.7490970  63.1972911   1.6359155  43.1423693  55.3549429
   2.2212591  42.3967381  55.4877333   1.4383993  43.4527650  56.2386093
   4.4897810  46.1774940  50.3711871   3.8208185  46.6621068  49.8875912
   4.3510680  46.4244161  51.2855250   8.6303078  48.2118684  56.9694530
   9.1821386  48.3750306  57.7343615   8.9709272  48.8023122  56.2974555
   3.6067572  30.5593834  57.5716415   3.6708898  31.4208665  57.1593812
   3.5434692  29.9467835  56.8388773   3.0819844  32.6316966  61.2189449
   3.7091883  32.2494044  61.8326973   2.2247763  32.4131168  61.5845141
  13.4813953  43.0379942  62.8243184  14.0253857  43.6509900  62.3298139
  12.9000798  43.5959520  63.3410197  11.7671466  46.1600660  53.9558212
  11.6422605  45.3590399  53.4469157  12.4250557  46.6546853  53.4672182
   3.3879634  32.5149392  53.1335352   2.6666220  33.1285360  52.9942826
   4.1772890  33.0507157  53.0551998  13.8306374  43.9609680  55.5837762
  12.8836710  43.8415031  55.5116089  14.1789147  43.0732178  55.6664024
   6.1905947  29.8503819  59.4076004   6.7140349  30.0966115  60.1702313
   5.9718281  30.6823853  58.9879141   1.5873229  32.1207493  47.2747129
   1.2585935  31.2404872  47.0922235   1.9412599  32.0655162  48.1623518
  10.8352807  43.7562396  51.7842114  10.6877770  42.8279103  51.9649684
  11.6606301  43.7782487  51.2999190   4.7015052  32.4080463  47.6422606
   5.0411124  32.9366384  46.9201215   5.1487172  32.7460869  48.4181173
  14.4386929  44.5790955  52.8706987  15.3633477  44.3733816  52.7331438
  14.2702233  44.3307356  53.7796329   7.3958493  30.7917514  57.0925675
   7.0555313  29.9925327  57.4946354   6.6897499  31.0919224  56.5202508
   8.0474964  27.8766826  55.5452998   8.8701034  27.4027304  55.4231888
   8.2913028  28.6557310  56.0451684   6.6883199  30.9055085  45.8415899
   7.4091561  31.2836337  45.3379616   6.0648503  31.6243961  45.9450877
  10.8314322  31.6100233  46.7774232  11.0477936  32.4924871  46.4763060
  10.3508389  31.2186447  46.0479874   5.5713543  34.5685947  53.3544976
   5.4258124  34.8826250  54.2469258   5.0938747  35.1870847  52.8015875
   7.4309926  31.5588495  53.4025866   7.4171495  30.6629588  53.0658164
   8.1482354  31.5659158  54.0364152   9.2836057  31.9925835  55.4478993
   9.0253835  32.9142906  55.4463324   8.7521097  31.5956269  56.1379457
  14.2282245  45.0976622  48.2269079  14.4019123  44.5323045  47.4742931
  14.7211137  45.8977517  48.0448568   6.8346822  30.4402875  48.6713436
   6.9562733  29.5119521  48.8704323   6.5448864  30.4541561  47.7591751
   9.7038012  28.1257785  51.8080156   9.7259709  28.1897119  50.8532135
  10.1206071  27.2862294  52.0020662  20.0821637  37.8613045  49.8459378
  20.5252783  37.1120370  49.4478502  19.2048147  37.8523181  49.4633110
  15.2157418  44.4143386  45.3265977  15.9108323  45.0350079  45.5453291
  15.5580568  43.5638738  45.6018355  17.1148841  41.8643092  46.8553308
  17.6400165  42.2030365  46.1302628  17.0271194  40.9290107  46.6716442
   8.7768890  45.7777166  58.9843184   9.0856016  45.5326312  59.8565884
   9.5744372  45.9823804  58.4962054   8.7989502  47.9315075  51.2148561
   8.3594492  47.4391454  51.9081417   9.5497619  47.3888043  50.9740636
   1.2781841  44.1226616  51.2173189   2.1039861  43.8230388  50.8371832
   0.9275893  43.3534239  51.6662977   6.2463374  43.4753084  53.2870862
   5.6243383  42.8123789  52.9873090   6.9168241  43.5014216  52.6044510
   6.3187901  31.9534872  62.8803368   6.3676057  32.8296995  62.4981138
   6.8610416  31.4112265  62.3075012  16.8042747  42.4975996  62.1604506
  16.0138291  42.4800134  61.6209005  16.5676102  43.0364289  62.9153542
  16.9240622  39.3468462  59.4737234  16.9738627  39.1818469  60.4152757
  16.8154546  38.4795721  59.0835115   5.8076881  42.0257008  46.7629323
   5.9565001  42.7092472  46.1095996   6.6143324  42.0062098  47.2778779
  14.2144385  35.3299390  60.7896541  15.1154247  35.1905855  60.4980539
  14.2892359  35.4953845  61.7294718   8.5487190  32.7066245  59.6349727
   7.6790499  32.9999811  59.3632316   8.7846670  33.2906690  60.3556991
  18.4258819  41.7665403  59.7179256  18.1343627  42.1295384  60.5542717
  17.8130950  41.0532412  59.5392588  19.6254501  39.3318283  52.2381826
  20.4601393  39.7708087  52.4019386  19.7613630  38.8556936  51.4190072
  16.6746007  36.8898018  58.1859314  17.1500129  37.0825664  57.3778165
  15.7511573  36.9457204  57.9402697   3.5629514  38.0522185  47.7690392
   3.3175556  37.1484515  47.9670602   3.7325428  38.0539336  46.8269870
  11.2526224  28.9245862  57.1515147  11.7708168  29.6606889  56.8261636
  10.8981357  29.2309855  57.9861907   2.8325161  33.7850543  45.2676553
   2.1394406  33.8594898  44.6116589   2.5876913  33.0210887  45.7898070
  11.5038818  25.3446144  52.6716044  11.7840572  24.6769333  53.2976471
  12.2889425  25.5375240  52.1590708   9.3072286  44.5205138  44.2341070
   8.7346253  45.1395325  43.7811542   9.8805080  45.0704500  44.7680992
  15.3747676  33.7663778  56.4187619  16.3265099  33.8661876  56.4399843
  15.2051127  32.9742047  56.9285704  13.3962056  30.8519361  56.6047020
  12.8011988  31.1324374  55.9093509  13.1111752  31.3413262  57.3763761
  12.5269546  44.8042288  45.3649653  13.4600219  44.7387850  45.5682528
  12.4392759  45.6398555  44.9064185  15.1557563  44.1208159  42.3253600
  15.0771194  43.7868022  43.2189358  15.9767230  44.6129926  42.3245073
  17.8535754  36.9869898  55.5329919  17.8212074  36.0485899  55.7189603
  18.4636378  37.0653935  54.7995744   9.6919085  35.8565951  41.5757123
  10.6378190  35.7272159  41.6445541   9.3133330  35.1180613  42.0526551
  18.0030243  33.7780941  55.5788202  17.4869291  32.9939398  55.3918131
  18.8870191  33.4499658  55.7434721  15.6640969  27.5221957  51.5384015
  15.4665791  27.2137045  52.4227347  16.2740675  28.2483596  51.6681945
   9.5757777  39.9083697  63.0357780  10.4960787  40.0862296  63.2297826
   9.5407360  38.9639742  62.8837479   7.8762002  33.7815927  41.5112008
   6.9693457  33.4849040  41.5874722   8.1537983  33.4845745  40.6446294
   2.5719850  37.8184732  55.6780561   2.7905860  38.7501839  55.6968595
   2.9845624  37.4592706  56.4635365   9.4924068  28.3252817  47.6656249
   8.6824796  27.9799902  48.0411495  10.1808485  28.0160361  48.2543861
  11.4214616  27.4030864  49.2880546  11.9745655  27.8226317  49.9470569
  11.6584702  26.4766612  49.3303502   7.4447715  33.3917937  65.0683310
   7.3444442  34.3412294  64.9995401   7.2269257  33.0636176  64.1959380
   6.6460787  30.6402862  41.6523987   7.5079951  30.9657761  41.9119805
   6.8311131  29.8534358  41.1397053  14.7993423  29.5131389  48.7959210
  14.2192092  30.1716193  48.4137263  14.5329356  28.6908734  48.3846628
  13.2496990  28.9136447  50.9980531  13.7496768  29.0252981  50.1894849
  13.8932597  28.6097499  51.6381339   7.3078985  36.8215076  63.8848372
   6.8246067  37.6215436  64.0912261   7.3939924  36.8323021  62.9315816
   3.2352323  40.7119611  55.9216805   4.1895576  40.6803553  55.8546737
   3.0364846  40.2510235  56.7367031   3.8251705  39.2820727  58.4887603
   4.6444594  39.7764806  58.5122440   4.0988513  38.3652695  58.4605171
  13.5818301  31.6731479  47.8515559  12.6944156  31.9581130  47.6335753
  13.9972290  31.5125243  47.0042835  16.9332837  31.6978000  51.5669898
  17.7093227  32.1874453  51.8394515  16.2080971  32.1236054  52.0241767
   1.5902552  46.2539230  52.9387003   1.4557020  45.4939631  52.3725001
   1.1734614  46.9780130  52.4715792  12.7261515  41.4376154  41.9463579
  13.4297365  41.6426156  42.5621234  12.0024163  42.0052916  42.2112662
  13.5559325  37.1886015  48.0665849  13.4994526  37.6454567  47.2273481
  14.1087667  36.4276700  47.8888691  17.3664131  32.9775747  48.8915968
  17.1101065  32.5772383  49.7224176  16.7416999  33.6919541  48.7666107
   4.7471678  47.1508547  53.1505446   4.6304062  48.0953980  53.0484136
   3.9264124  46.8482109  53.5391245  14.6348212  41.8758683  43.9962039
  15.4693816  41.4439882  43.8139513  14.4732555  41.7040697  44.9238933
  14.2894104  38.3790796  45.3618378  14.2342908  38.2135068  44.4206822
  13.6640160  39.0866829  45.5180568  11.6040011  40.6839708  64.6871941
  12.4731171  40.8580361  64.3258576  11.1246763  41.5034125  64.5647670
   7.5990230  27.8798906  44.9403696   7.5868900  28.8240745  45.0971967
   8.4913652  27.6969051  44.6463157   5.7726192  47.8036809  56.3661374
   6.6753438  47.8360420  56.6827869   5.5463562  46.8737260  56.3807710
   7.5279794  46.5567796  53.0271453   6.5775425  46.5569658  52.9135825
   7.8312280  45.8100530  52.5107488  11.4142349  24.4741682  49.1949633
  10.6474745  23.9200169  49.3406315  11.8253054  24.5463551  50.0563785
   3.4184110  30.7626478  63.2854814   4.2815572  30.4063283  63.4958139
   2.8449521  30.4240373  63.9730219  23.2632487  52.3928334  54.0917215
  23.9010897  52.2735082  53.3880555  23.1453330  53.3409178  54.1505167
  20.0722193  52.3455762  54.0278740  19.7340705  52.2296827  53.1399275
  20.9411962  51.9446927  54.0079746  15.9309009  54.1991239  50.0175631
  15.3673874  54.1081176  49.2491919  15.8161404  53.3791143  50.4978124
  20.5541976  53.4990614  59.9864946  20.5430617  53.1043412  59.1145449
  20.7162616  52.7656687  60.5798717  13.4773441  55.6942430  52.8559851
  14.2694733  55.3533255  52.4406151  13.7170091  55.8037405  53.7762005
  21.5108568  57.8662207  45.3290096  20.8596548  58.4516287  44.9424110
  22.3052931  58.3968401  45.3885133  15.4364195  54.9551344  45.7277230
  16.2095071  54.4080331  45.5890106  15.7889594  55.8195593  45.9391692
  17.2749238  56.2827726  58.9344130  16.9839104  57.1873357  58.8190796
  17.9106222  56.3244254  59.6488199  18.2005444  53.6604574  55.5245489
  18.7969017  53.4360597  54.8102452  18.2580416  52.9189320  56.1270937
  17.7730473  51.1144010  43.3595680  18.0255993  50.5925531  42.5979143
  16.8355032  50.9510155  43.4622364  22.8173756  50.1179788  51.1670423
  23.6036845  49.6999211  50.8160840  23.0812460  51.0225880  51.3352072
  22.9883833  55.5552638  45.8659080  22.3529666  55.6287265  46.5779985
  22.6581239  56.1446237  45.1878159  28.2182183  50.0555021  52.0703402
  28.9507355  49.4854238  52.3041231  27.4621538  49.6676622  52.5109907
  17.4926762  53.0172116  45.5620055  17.3763020  52.3417019  46.2301139
  17.6029021  52.5304490  44.7452208  19.8358302  52.4782263  49.2666744
  19.4716510  51.9512884  49.9779666  20.6925418  52.0880732  49.0933230
  19.4763789  47.5072163  44.2628093  19.6438192  48.3752399  44.6298564
  19.2860959  47.6699444  43.3389382  22.2339123  55.9689141  55.9293923
  21.9339846  56.8714180  55.8209730  21.8890182  55.7021325  56.7815076
  15.6851604  52.4202938  51.9630628  14.7602101  52.2879152  52.1708319
  15.9336017  53.1997158  52.4600570  25.6336266  48.4871682  53.6091361
  24.7253144  48.4187090  53.3150122  25.5823862  48.9643627  54.4373186
  19.4553010  49.9629820  45.2474760  19.3352636  50.4086871  46.0860240
  18.7605599  50.3115138  44.6888298  13.0460415  52.0636212  52.7974417
  13.1752796  52.3170691  53.7113828  12.3657866  52.6563920  52.4779072
  17.2159902  62.7333462  48.8964891  17.1383932  63.6841287  48.9753371
  16.6121546  62.3879334  49.5539817  19.7077132  49.9061327  61.5526258
  18.9310466  50.4655247  61.5429122  20.3467695  50.3918110  62.0741128
  27.4997913  46.6888120  55.3869234  26.8572293  46.9820653  54.7409029
  26.9952841  46.5741040  56.1922431  25.1538076  50.4351293  46.0755094
  26.0655933  50.6678680  45.9002791  24.6447724  51.0188337  45.5130172
  17.9623505  52.7146781  61.1144225  18.7038189  53.2531825  60.8379048
  17.2560490  53.3413069  61.2715777  23.4378844  54.8575921  59.7116386
  23.8462200  54.4158332  58.9671019  22.7156106  54.2828549  59.9650579
  19.7909914  49.7948528  57.0849943  20.6371109  50.2187941  57.2284592
  19.7308552  49.1382152  57.7788506  23.7607659  55.4177112  53.4668675
  23.1316521  55.5822826  52.7644743  23.3733321  55.8318721  54.2379639
  27.6396891  56.3531550  50.8213039  26.9547929  56.7330451  50.2710072
  27.7240740  56.9626876  51.5544987  22.9409360  47.4552896  58.7431117
  22.6970291  48.2094957  58.2065393  23.2169290  47.8338244  59.5778364
  24.8947822  53.9991509  57.4208382  25.1064718  54.6423268  56.7442764
  24.8477571  53.1653825  56.9530313  22.4974051  46.6109329  54.3244955
  21.6358530  46.9090583  54.6161692  22.5236486  46.8279728  53.3925987
  19.3135621  55.1551520  50.7318760  19.7773966  55.4339223  49.9423383
  19.0492419  54.2534964  50.5491851  16.2059702  54.7023001  53.6698524
  16.7761059  55.1310270  53.0316008  16.7967814  54.4205586  54.3682709
  18.2504507  51.2774672  47.5408325  18.9528550  51.7295716  48.0082252
  17.9185135  50.6358491  48.1688219  16.6984868  49.8686429  61.9159535
  16.0683529  50.5502710  62.1494932  16.5920956  49.7569510  60.9712673
  11.9929841  49.5358225  52.8425459  11.2028895  49.7915753  52.3665570
  12.4841088  50.3506563  52.9477500  26.0093650  56.8763464  55.5930740
  26.8311094  56.4743651  55.3113421  26.0056053  56.7731698  56.5446856
  13.9444586  49.9002804  49.8008936  13.1475749  50.0121498  50.3192431
  13.7170178  50.2389456  48.9349826  19.7750254  56.4247507  57.7491450
  19.8394686  56.8867915  58.5849622  19.0661178  55.7944872  57.8773760
  10.2767544  49.7888715  55.2740450  10.5275582  50.6735725  55.5398026
  10.8127092  49.6093317  54.5015542  34.0999643  53.2202212  51.9415711
  33.3463352  52.6509611  51.7859716  34.2347185  53.1864877  52.8886346
  19.4898271  58.0915615  47.6170431  19.3543946  58.9367150  48.0455278
  20.0308084  58.2934892  46.8536364  15.9765611  44.1707195  64.2784786
  15.5832557  43.6173393  64.9532430  16.7931751  44.4817773  64.6691303
  12.9427669  55.6091053  48.1898356  13.4552189  56.4034303  48.3403920
  13.5950382  54.9117343  48.1231957  14.7522553  58.7256809  50.2721109
  14.9289182  59.6474774  50.0842093  15.5479387  58.4115228  50.7015489
  18.8933572  45.5865074  61.8705042  19.6343285  46.1872227  61.7909505
  19.1251495  44.8442711  61.3123085  14.0374910  50.7721441  60.1483272
  13.9228425  49.8706698  60.4490371  13.1819428  51.0185138  59.7968089
  21.1166748  58.7139181  61.7470773  20.6730602  57.9275560  61.4291677
  21.7783961  58.9018332  61.0814664  15.8753869  60.2434983  56.2731451
  16.4261294  60.1152046  55.5008445  15.0365345  60.5429872  55.9226344
  23.2147986  58.9941981  59.7752174  23.1966461  59.8150862  59.2832443
  24.1367906  58.8696056  60.0002315  19.6721040  56.5086111  60.6175682
  20.2049377  55.7474399  60.3874990  19.1435121  56.2159762  61.3599837
  10.9076586  53.9379707  48.9657926  11.7451808  54.3476715  48.7491634
  11.0854853  52.9979149  48.9358120  22.8041018  51.6054788  44.6541759
  22.2887641  52.3759392  44.8930147  22.5318326  50.9319924  45.2774821
  20.3888129  46.4504489  49.7126998  19.5329725  46.0611339  49.5332636
  20.8015080  46.5296449  48.8526783  21.9187275  43.9850832  54.1118557
  21.4152071  43.9480967  53.2986363  22.2117882  44.8943575  54.1715214
  18.1630161  44.0689562  53.1184739  19.0283158  43.8732370  52.7590629
  18.2307670  43.8399913  54.0454096  27.7775292  54.3587142  46.5894933
  27.0004735  54.0198302  46.1450095  28.4566773  54.3639766  45.9149898
  22.5927321  49.4781880  46.4801540  22.2877456  49.7928029  47.3311684
  23.5457763  49.5563300  46.5228873  21.0373753  55.6372103  48.1294494
  20.5095114  54.9024863  47.8167732  20.5361255  56.4146780  47.8834463
  26.0166599  53.8321124  53.2461541  25.3590273  54.5220385  53.3341669
  26.8206998  54.2217556  53.5895527  15.7692480  46.2991769  50.4901106
  16.3436232  46.0766951  49.7574299  16.3563463  46.3680464  51.2429707
  24.8272057  52.1865496  51.2965482  25.3403939  52.8195488  51.7987192
  25.4773281  51.5866692  50.9308842  16.0962067  48.3296230  44.5096991
  15.2599380  48.6670917  44.8306266  15.9566837  48.1945210  43.5724128
  18.0715148  43.1733018  49.2176175  17.4179560  42.8582036  48.5932790
  18.0295622  42.5508759  49.9435998  19.1826353  53.4552313  41.1329467
  18.2753415  53.2241567  41.3320616  19.6797385  52.6589933  41.3203449
  22.0894432  62.1649821  44.0526154  21.4156130  62.4681517  44.6611111
  22.4760254  62.9678901  43.7031611  21.3052888  49.6614952  53.5423823
  20.3875450  49.8829899  53.3845511  21.7213032  49.7361262  52.6835530
  22.0887936  51.0606368  48.6726503  22.8359755  51.5727765  48.3633625
  22.3579526  50.7390420  49.5330897  20.3614586  53.5564908  45.6553458
  19.4525806  53.2723941  45.7525927  20.3909670  53.9763987  44.7956764
  25.5933854  57.1671498  49.4244625  25.1396181  56.3262408  49.4809816
  24.9627820  57.8032896  49.7619405  24.5366773  48.0963484  50.6545293
  23.7989530  47.5840870  50.9855535  24.7893547  47.6563865  49.8428569
  24.0366793  59.0047994  50.3594443  24.3289767  59.5653052  49.6406809
  24.5465414  59.2976555  51.1147602  24.6378401  40.8739736  51.2487062
  24.9437277  40.0137099  50.9612977  25.3631005  41.4657356  51.0486056
  10.9302757  51.2770422  49.6368660  10.7327156  50.6839783  48.9119726
  10.3749421  50.9722633  50.3544599  18.9099480  51.1693529  51.7563253
  18.9648090  50.2167365  51.6805729  18.0990682  51.3252968  52.2404551
  20.0590674  55.0973652  42.9941536  19.6210104  54.3809511  42.5347173
  20.8001115  55.3249767  42.4326627  16.8491840  49.7870589  49.5153632
  16.0359706  50.0864759  49.9218824  17.3450834  49.3926277  50.2328114
  19.0000418  59.7828346  51.4487896  18.9576597  60.0089192  50.5196428
  19.9163117  59.5491720  51.5973698  22.4466052  50.2512413  58.3468526
  22.8015440  50.4783886  59.2062991  23.0938183  50.5830790  57.7245781
  28.1763789  53.3730849  49.0517855  28.0381687  53.5632445  48.1239044
  27.8200008  54.1350232  49.5085906  16.3405915  47.3588944  55.1314867
  16.9805294  47.2177703  54.4337830  15.5083446  47.0723458  54.7553469
  28.2033168  55.4407376  54.0629126  28.6369675  55.3482665  54.9112180
  28.9164749  55.4164876  53.4249142  17.1166219  56.6591375  51.2449859
  17.9106817  56.1641695  51.0432434  16.4057911  56.1309238  50.8817565
  21.9361063  59.0409470  55.5962227  21.9898086  59.6100406  56.3639943
  21.0675845  59.2111355  55.2316264  13.4248982  50.8034456  47.3209612
  12.4946570  50.7418912  47.5379574  13.5206454  50.2810409  46.5246253
  13.3434531  47.3289269  49.9087853  13.6041349  48.2434602  49.7997014
  14.1651704  46.8613712  50.0584466  14.8159457  48.7427026  57.0786678
  15.4882510  48.5344388  56.4299327  13.9889243  48.5449112  56.6391910
  29.0648718  55.4831077  56.5962012  29.2584608  56.3876887  56.8421286
  28.9649336  55.0238496  57.4300597  20.7185029  45.3688967  59.0952339
  20.0712944  46.0678917  59.0016815  21.4886044  45.8025111  59.4628587
  24.1263827  55.6337819  62.1702892  23.9749333  55.4048371  61.2532976
  24.1168506  56.5908421  62.1834237  20.8949163  53.2069732  57.1549159
  21.8241223  53.3580892  56.9818126  20.4740193  53.2953753  56.2997805
  19.6937495  57.2320397  54.9247696  19.5548581  56.8639181  55.7973634
  18.9052091  57.7468036  54.7531654  20.2885647  62.3329493  46.2673233
  20.4637403  61.8617536  47.0818855  19.6018435  62.9595259  46.4954493
  21.2442710  56.6101999  52.3136534  20.9092543  56.5702769  53.2094184
  20.7446656  55.9446715  51.8406944  15.2186954  52.0169629  57.8389115
  15.0806752  51.2849868  58.4400654  16.1291877  51.9278529  57.5573303
  24.1801902  53.9558034  42.5873594  23.5631072  53.2304862  42.4906646
  23.7118390  54.7167394  42.2440668  17.8469255  51.7289589  57.3272795
  18.5568873  51.0882781  57.2859413  17.8038563  51.9802483  58.2498976
  25.8356033  58.6656942  60.2479374  25.7768580  57.9816162  59.5809957
  26.2375552  59.4075932  59.7960000  16.5598189  48.7154806  59.1468434
  16.0235546  48.2645545  59.7990031  15.9714897  48.8500715  58.4038899
  14.8546732  65.4818856  53.0413093  15.0943330  66.1137380  53.7192111
  14.0115929  65.1306896  53.3278452  15.9700448  48.1743458  41.7094898
  15.0929914  48.0532259  41.3457145  16.4458201  47.3829536  41.4573787
  25.8373441  56.6296526  58.4793354  24.9500219  56.2922448  58.6019753
  26.4071992  55.8979557  58.7162119   7.4902588  52.9620618  51.8036405
   8.1773628  52.6482348  51.2157420   7.3350716  53.8661982  51.5303657
  12.2937310  47.8510814  56.2321429  12.2095499  47.2436484  55.4971839
  11.4720016  48.3419833  56.2330925  19.3674594  61.2897978  55.4454597
  19.2944765  62.0952950  55.9573901  18.9251987  61.4889944  54.6202618
  19.1564374  60.5269748  48.9557418  18.3731896  61.0691428  49.0495643
  19.8557119  61.0443728  49.3551660  22.4661024  46.3364378  51.5991624
  22.9629723  45.5834340  51.2792694  21.6948005  46.3728694  51.0334833
  21.8273278  61.1884812  57.6012756  22.5401250  61.8232277  57.5288657
  21.3363306  61.2848678  56.7852757  23.5490804  55.0936065  49.1730047
  22.6147083  55.2137527  49.0034752  23.7267473  54.1908532  48.9090057
  19.0495993  48.4781761  51.3263308  18.6793780  47.9252801  52.0144214
  19.5455085  47.8739894  50.7738308  26.9363356  50.9353384  49.7080081
  27.4023808  51.7681376  49.6340384  27.3870856  50.4698366  50.4125340
  16.8785191  58.9379256  58.4218326  17.5794651  59.5715739  58.5747721
  16.4080306  59.2793987  57.6613966  25.0039587  57.2797206  46.7066233
  25.2799431  57.1653800  47.6160108  24.1344086  56.8814690  46.6678407
  24.9080019  43.3033971  53.7470983  23.9943098  43.5338198  53.9153190
  25.3373120  43.3872415  54.5985015  24.6786477  51.4923863  56.2470877
  24.0257927  51.7399771  55.5923330  25.0566857  50.6788001  55.9133354
  21.6393651  61.5283556  50.3499047  21.8216045  60.7105212  50.8126799
  22.4626637  61.7451249  49.9123937  21.9735816  60.4551741  47.6114096
  22.5023583  59.9444196  46.9984258  22.2364036  60.1394272  48.4759629
  20.7274050  52.2343674  62.7336914  20.0514687  52.1337804  63.4039289
  21.5501684  52.0782888  63.1972911  12.4752909  58.4715611  55.3549429
  13.0606346  57.7259299  55.4877333  12.2777748  58.7819567  56.2386093
  15.3291564  61.5066858  50.3711871  14.6601940  61.9912986  49.8875912
  15.1904434  61.7536079  51.2855250   7.0670564  51.0421211  54.0753872
   7.1054663  50.5084802  54.8690990   6.5610857  50.5156417  53.4564849
  19.4696833  63.5410602  56.9694530  20.0215141  63.7042223  57.7343615
  19.8103026  64.1315040  56.2974555  14.4461326  45.8885751  57.5716415
  14.5102653  46.7500582  57.1593812  14.3828446  45.2759753  56.8388773
  13.9213599  47.9608884  61.2189449  14.5485638  47.5785961  61.8326973
  13.0641518  47.7423086  61.5845141  24.3207707  58.3671859  62.8243184
  24.8647611  58.9801817  62.3298139  23.7394552  58.9251438  63.3410197
  10.6979141  49.7685313  47.1507804  10.9932583  48.8595992  47.0974857
   9.7967177  49.7473053  46.8288806  22.6065220  61.4892577  53.9558212
  22.4816360  60.6882317  53.4469157  23.2644311  61.9838771  53.4672182
  14.2273388  47.8441310  53.1335352  13.5059974  48.4577277  52.9942826
  15.0166644  48.3799075  53.0551998  24.6700129  59.2901597  55.5837762
  23.7230464  59.1706948  55.5116089  25.0182902  58.4024095  55.6664024
  17.0299702  45.1795736  59.4076004  17.5534104  45.4258033  60.1702313
  16.8112035  46.0115771  58.9879141  12.4266983  47.4499411  47.2747129
  12.0979689  46.5696790  47.0922235  12.7806354  47.3947080  48.1623518
  21.6746562  59.0854314  51.7842114  21.5271524  58.1571021  51.9649684
  22.5000055  59.1074404  51.2999190  15.5408806  47.7372381  47.6422606
  15.8804879  48.2658302  46.9201215  15.9880927  48.0752787  48.4181173
  25.2780684  59.9082872  52.8706987  26.2027231  59.7025734  52.7331438
  25.1095987  59.6599273  53.7796329  18.2352247  46.1209431  57.0925675
  17.8949067  45.3217244  57.4946354  17.5291253  46.4211142  56.5202508
  18.8868719  43.2058744  55.5452998  19.7094788  42.7319222  55.4231888
  19.1306782  43.9849228  56.0451684  17.5276953  46.2347002  45.8415899
  18.2485316  46.6128255  45.3379616  16.9042257  46.9535879  45.9450877
  21.6708076  46.9392151  46.7774232  21.8871691  47.8216789  46.4763060
  21.1902143  46.5478365  46.0479874  16.4107298  49.8977864  53.3544976
  16.2651878  50.2118167  54.2469258  15.9332501  50.5162765  52.8015875
  18.2703680  46.8880412  53.4025866  18.2565249  45.9921506  53.0658164
  18.9876109  46.8951076  54.0364152  20.1229811  47.3217753  55.4478993
  19.8647589  48.2434823  55.4463324  19.5914852  46.9248187  56.1379457
  25.0676000  60.4268540  48.2269079  25.2412877  59.8614962  47.4742931
  25.5604891  61.2269435  48.0448568  10.8852960  52.4383209  56.2932637
  10.3406428  53.2143017  56.4252912  11.7632310  52.7854013  56.1351759
  17.6740576  45.7694793  48.6713436  17.7956488  44.8411439  48.8704323
  17.3842619  45.7833479  47.7591751  20.5431767  43.4549703  51.8080156
  20.5653464  43.5189036  50.8532135  20.9599826  42.6154212  52.0020662
  30.9215391  53.1904963  49.8459378  31.3646537  52.4412288  49.4478502
  30.0441901  53.1815099  49.4633110  26.0551172  59.7435304  45.3265977
  26.7502077  60.3641997  45.5453291  26.3974323  58.8930655  45.6018355
  11.6718982  51.5653105  59.1862794  10.9300718  51.7135740  59.7727425
  11.3511726  51.8261371  58.3229544  27.9542596  57.1935010  46.8553308
  28.4793920  57.5322282  46.1302628  27.8664948  56.2582025  46.6716442
  19.6162644  61.1069083  58.9843184  19.9249771  60.8618230  59.8565884
  20.4138126  61.3115722  58.4962054  19.6383256  63.2606993  51.2148561
  19.1988247  62.7683372  51.9081417  20.3891373  62.7179961  50.9740636
  12.1175595  59.4518534  51.2173189  12.9433615  59.1522306  50.8371832
  11.7669647  58.6826156  51.6662977  17.0857128  58.8045002  53.2870862
  16.4637138  58.1415707  52.9873090  17.7561995  58.8306134  52.6044510
  10.3184200  57.3704860  52.1762122   9.4816109  56.9427035  51.9946124
  10.2907846  57.5637304  53.1132914  17.1581656  47.2826790  62.8803368
  17.2069811  48.1588913  62.4981138  17.7004170  46.7404183  62.3075012
  27.6436502  57.8267913  62.1604506  26.8532045  57.8092052  61.6209005
  27.4069856  58.3656207  62.9153542  27.7634377  54.6760380  59.4737234
  27.8132382  54.5110387  60.4152757  27.6548300  53.8087639  59.0835115
  16.6470635  57.3548925  46.7629323  16.7958756  58.0384390  46.1095996
  17.4537079  57.3354015  47.2778779  25.0538139  50.6591308  60.7896541
  25.9548002  50.5197773  60.4980539  25.1286114  50.8245763  61.7294718
  19.3880944  48.0358162  59.6349727  18.5184254  48.3291728  59.3632316
  19.6240425  48.6198607  60.3556991  29.2652574  57.0957321  59.7179256
  28.9737382  57.4587302  60.5542717  28.6524705  56.3824329  59.5392588
  30.4648256  54.6610201  52.2381826  31.2995147  55.1000005  52.4019386
  30.6007385  54.1848854  51.4190072  27.5139762  52.2189936  58.1859314
  27.9893883  52.4117582  57.3778165  26.5905327  52.2749122  57.9402697
  14.4023268  53.3814103  47.7690392  14.1569310  52.4776433  47.9670602
  14.5719183  53.3831253  46.8269870  22.0919978  44.2537779  57.1515147
  22.6101922  44.9898806  56.8261636  21.7375111  44.5601773  57.9861907
  13.6718916  49.1142461  45.2676553  12.9788161  49.1886816  44.6116589
  13.4270668  48.3502804  45.7898070  20.1466041  59.8497056  44.2341070
  19.5740008  60.4687243  43.7811542  20.7198835  60.3996417  44.7680992
  26.2141431  49.0955696  56.4187619  27.1658854  49.1953794  56.4399843
  26.0444881  48.3033964  56.9285704  24.2355810  46.1811279  56.6047020
  23.6405742  46.4616292  55.9093509  23.9505507  46.6705180  57.3763761
  23.3663301  60.1334206  45.3649653  24.2993974  60.0679768  45.5682528
  23.2786514  60.9690473  44.9064185  25.9951317  59.4500076  42.3253600
  25.9164949  59.1159940  43.2189358  26.8160984  59.9421844  42.3245073
  20.5312839  51.1857869  41.5757123  21.4771944  51.0564077  41.6445541
  20.1527084  50.4472530  42.0526551  26.5034724  42.8513875  51.5384015
  26.3059545  42.5428963  52.4227347  27.1134430  43.5775513  51.6681945
  34.5106058  53.3777822  54.6735956  35.2409447  53.1163111  55.2343659
  33.9013004  52.6406544  54.7138024  20.4151532  55.2375615  63.0357780
  21.3354541  55.4154214  63.2297826  20.3801115  54.2931660  62.8837479
  18.7155757  49.1107845  41.5112008  17.8087212  48.8140958  41.5874722
  18.9931738  48.8137663  40.6446294   9.6333697  50.4314208  51.9611055
   9.3136481  49.5779517  51.6685429   9.0867125  50.6462786  52.7169022
  13.4113604  53.1476649  55.6780561  13.6299614  54.0793757  55.6968595
  13.8239378  52.7884624  56.4635365  20.3317822  43.6544735  47.6656249
  19.5218551  43.3091820  48.0411495  21.0202239  43.3452278  48.2543861
  22.2608371  42.7322781  49.2880546  22.8139409  43.1518235  49.9470569
  22.4978457  41.8058530  49.3303502  18.2841470  48.7209855  65.0683310
  18.1838197  49.6704212  64.9995401  18.0663012  48.3928094  64.1959380
  17.4854541  45.9694780  41.6523987  18.3473705  46.2949678  41.9119805
  17.6704885  45.1826276  41.1397053   9.5021957  54.0517120  53.9304176
   8.8085428  53.6371073  53.4174130  10.2494948  54.0937656  53.3337595
  25.6387178  44.8423307  48.7959210  25.0585847  45.5008111  48.4137263
  25.3723110  44.0200651  48.3846628  24.0890744  44.2428364  50.9980531
  24.5890522  44.3544899  50.1894849  24.7326352  43.9389417  51.6381339
  18.1472740  52.1506994  63.8848372  17.6639822  52.9507354  64.0912261
  18.2333679  52.1614939  62.9315816  11.4158699  53.9835374  51.8070191
  11.3929388  54.0823061  50.8552074  11.7259336  54.8300524  52.1287357
  14.0746077  56.0411529  55.9216805  15.0289331  56.0095471  55.8546737
  13.8758601  55.5802152  56.7367031  14.6645459  54.6112645  58.4887603
  15.4838348  55.1056723  58.5122440  14.9382267  53.6944613  58.4605171
  24.4212056  47.0023397  47.8515559  23.5337911  47.2873048  47.6335753
  24.8366045  46.8417160  47.0042835  27.7726592  47.0269918  51.5669898
  28.5486982  47.5166370  51.8394515  27.0474726  47.4527972  52.0241767
  12.4296306  61.5831148  52.9387003  12.2950774  60.8231549  52.3725001
  12.0128368  62.3072048  52.4715792  23.5655269  56.7668072  41.9463579
  24.2691119  56.9718074  42.5621234  22.8417918  57.3344834  42.2112662
  24.3953079  52.5177933  48.0665849  24.3388281  52.9746484  47.2273481
  24.9481422  51.7568618  47.8888691  28.2057885  48.3067665  48.8915968
  27.9494820  47.9064300  49.7224176  27.5810753  49.0211459  48.7666107
  15.5865432  62.4800465  53.1505446  15.4697816  63.4245898  53.0484136
  14.7657878  62.1774027  53.5391245  25.4741967  57.2050601  43.9962039
  26.3087570  56.7731799  43.8139513  25.3126309  57.0332615  44.9238933
  25.1287859  53.7082714  45.3618378  25.0736663  53.5426986  44.4206822
  24.5033914  54.4158747  45.5180568   9.9180374  48.9450779  59.1879800
  10.5639237  48.4349733  59.6767025   9.7097525  49.6819460  59.7623225
  22.4433766  56.0131626  64.6871941  23.3124926  56.1872278  64.3258576
  21.9640517  56.8326043  64.5647670  18.4383984  43.2090823  44.9403696
  18.4262654  44.1532663  45.0971967  19.3307406  43.0260969  44.6463157
  16.6119946  63.1328727  56.3661374  17.5147193  63.1652337  56.6827869
  16.3857316  62.2029178  56.3807710  18.3673548  61.8859714  53.0271453
  17.4169179  61.8861575  52.9135825  18.6706034  61.1392448  52.5107488
  22.2536104  39.8033600  49.1949633  21.4868499  39.2492087  49.3406315
  22.6646809  39.8755469  50.0563785  14.2577865  46.0918396  63.2854814
  15.1209326  45.7355200  63.4958139  13.6843275  45.7532290  63.9730219
  34.1026242  67.7220252  54.0917215  34.7404652  67.6026999  53.3880555
  33.9847085  68.6701096  54.1505167  30.9115948  67.6747680  54.0278740
  30.5734459  67.5588745  53.1399275  31.7805716  67.2738845  54.0079746
  26.7702764  69.5283156  50.0175631  26.2067629  69.4373093  49.2491919
  26.6555159  68.7083061  50.4978124  31.3935731  68.8282532  59.9864946
  31.3824372  68.4335330  59.1145449  31.5556370  68.0948604  60.5798717
  24.3167196  71.0234348  52.8559851  25.1088487  70.6825173  52.4406151
  24.5563846  71.1329323  53.7762005  32.3502322  73.1954124  45.3290096
  31.6990302  73.7808205  44.9424110  33.1446685  73.7260319  45.3885133
  26.2757949  70.2843261  45.7277230  27.0488825  69.7372248  45.5890106
  26.6283348  71.1487511  45.9391692  28.1142992  71.6119644  58.9344130
  27.8232858  72.5165274  58.8190796  28.7499976  71.6536171  59.6488199
  29.0399199  68.9896492  55.5245489  29.6362771  68.7652515  54.8102452
  29.0974170  68.2481238  56.1270937  28.6124227  66.4435927  43.3595680
  28.8649748  65.9217449  42.5979143  27.6748786  66.2802073  43.4622364
  33.6567510  65.4471706  51.1670423  34.4430599  65.0291129  50.8160840
  33.9206214  66.3517798  51.3352072  33.8277587  70.8844556  45.8659080
  33.1923420  70.9579183  46.5779985  33.4974994  71.4738155  45.1878159
  39.0575937  65.3846939  52.0703402  39.7901109  64.8146156  52.3041231
  38.3015293  64.9968539  52.5109907  28.3320516  68.3464033  45.5620055
  28.2156774  67.6708937  46.2301139  28.4422776  67.8596407  44.7452208
  30.6752057  67.8074181  49.2666744  30.3110264  67.2804801  49.9779666
  31.5319173  67.4172650  49.0933230  30.3157544  62.8364080  44.2628093
  30.4831946  63.7044317  44.6298564  30.1254713  62.9991362  43.3389382
  33.0732877  71.2981059  55.9293923  32.7733600  72.2006098  55.8209730
  32.7283937  71.0313242  56.7815076  26.5245359  67.7494856  51.9630628
  25.5995855  67.6171070  52.1708319  26.7729772  68.5289075  52.4600570
  36.4730021  63.8163599  53.6091361  35.5646898  63.7479008  53.3150122
  36.4217617  64.2935544  54.4373186  30.2946765  65.2921738  45.2474760
  30.1746390  65.7378788  46.0860240  29.5999353  65.6407055  44.6888298
  23.8854170  67.3928130  52.7974417  24.0146551  67.6462608  53.7113828
  23.2051621  67.9855838  52.4779072  28.0553657  78.0625379  48.8964891
  27.9777687  79.0133205  48.9753371  27.4515301  77.7171252  49.5539817
  30.5470887  65.2353245  61.5526258  29.7704221  65.7947165  61.5429122
  31.1861450  65.7210028  62.0741128  38.3391667  62.0180038  55.3869234
  37.6966048  62.3112571  54.7409029  37.8346596  61.9032958  56.1922431
  35.9931831  65.7643211  46.0755094  36.9049687  65.9970598  45.9002791
  35.4841478  66.3480255  45.5130172  28.8017259  68.0438698  61.1144225
  29.5431943  68.5823742  60.8379048  28.0954244  68.6704987  61.2715777
  34.2772599  70.1867839  59.7116386  34.6855955  69.7450249  58.9671019
  33.5549860  69.6120466  59.9650579  30.6303669  65.1240445  57.0849943
  31.4764864  65.5479859  57.2284592  30.5702306  64.4674070  57.7788506
  34.6001413  70.7469029  53.4668675  33.9710276  70.9114743  52.7644743
  34.2127075  71.1610639  54.2379639  38.4790645  71.6823467  50.8213039
  37.7941683  72.0622369  50.2710072  38.5634494  72.2918794  51.5544987
  33.7803114  62.7844814  58.7431117  33.5364046  63.5386874  58.2065393
  34.0563045  63.1630161  59.5778364  35.7341577  69.3283426  57.4208382
  35.9458472  69.9715186  56.7442764  35.6871325  68.4945743  56.9530313
  33.3367806  61.9401247  54.3244955  32.4752285  62.2382500  54.6161692
  33.3630240  62.1571646  53.3925987  30.1529375  70.4843437  50.7318760
  30.6167721  70.7631140  49.9423383  29.8886173  69.5826882  50.5491851
  27.0453456  70.0314919  53.6698524  27.6154813  70.4602187  53.0316008
  27.6361568  69.7497504  54.3682709  29.0898261  66.6066590  47.5408325
  29.7922305  67.0587633  48.0082252  28.7578890  65.9650409  48.1688219
  27.5378623  65.1978346  61.9159535  26.9077283  65.8794627  62.1494932
  27.4314711  65.0861428  60.9712673  22.8323595  64.8650142  52.8425459
  22.0422649  65.1207671  52.3665570  23.3234843  65.6798480  52.9477500
  36.8487405  72.2055382  55.5930740  37.6704848  71.8035569  55.3113421
  36.8449808  72.1023616  56.5446856  24.7838341  65.2294722  49.8008936
  23.9869504  65.3413416  50.3192431  24.5563933  65.5681374  48.9349826
  30.6144008  71.7539425  57.7491450  30.6788441  72.2159832  58.5849622
  29.9054932  71.1236790  57.8773760  21.1161298  65.1180633  55.2740450
  21.3669337  66.0027643  55.5398026  21.6520847  64.9385234  54.5015542
  44.9393398  68.5494130  51.9415711  44.1857106  67.9801528  51.7859716
  45.0740939  68.5156795  52.8886346  30.3292026  73.4207532  47.6170431
  30.1937701  74.2659068  48.0455278  30.8701838  73.6226810  46.8536364
  26.8159365  59.4999112  64.2784786  26.4226311  58.9465311  64.9532430
  27.6325506  59.8109691  64.6691303  23.7821423  70.9382970  48.1898356
  24.2945944  71.7326221  48.3403920  24.4344136  70.2409261  48.1231957
  25.5916308  74.0548727  50.2721109  25.7682936  74.9766691  50.0842093
  26.3873141  73.7407146  50.7015489  29.7327326  60.9156991  61.8705042
  30.4737040  61.5164145  61.7909505  29.9645249  60.1734629  61.3123085
  24.8768664  66.1013359  60.1483272  24.7622180  65.1998616  60.4490371
  24.0213182  66.3477055  59.7968089  31.9560502  74.0431099  61.7470773
  31.5124356  73.2567478  61.4291677  32.6177716  74.2310249  61.0814664
  26.7147623  75.5726901  56.2731451  27.2655049  75.4443964  55.5008445
  25.8759099  75.8721790  55.9226344  34.0541740  74.3233899  59.7752174
  34.0360216  75.1442780  59.2832443  34.9761660  74.1987974  60.0002315
  30.5114794  71.8378028  60.6175682  31.0443131  71.0766317  60.3874990
  29.9828876  71.5451680  61.3599837  33.6784489  56.9438094  56.1469324
  33.3348759  57.8339736  56.0708435  34.0463452  56.7539752  55.2838909
  21.7470340  69.2671625  48.9657926  22.5845562  69.6768633  48.7491634
  21.9248608  68.3271067  48.9358120  33.6434772  66.9346705  44.6541759
  33.1281396  67.7051310  44.8930147  33.3712081  66.2611842  45.2774821
  31.2281883  61.7796406  49.7126998  30.3723480  61.3903257  49.5332636
  31.6408835  61.8588367  48.8526783  32.7581030  59.3142749  54.1118557
  32.2545825  59.2772885  53.2986363  33.0511637  60.2235492  54.1715214
  29.0023916  59.3981479  53.1184739  29.8676912  59.2024288  52.7590629
  29.0701425  59.1691831  54.0454096  38.6169046  69.6879060  46.5894933
  37.8398489  69.3490220  46.1450095  39.2960527  69.6931683  45.9149898
  33.4321075  64.8073798  46.4801540  33.1271211  65.1219947  47.3311684
  34.3851517  64.8855217  46.5228873  31.8767507  70.9664021  48.1294494
  31.3488869  70.2316780  47.8167732  31.3755010  71.7438697  47.8834463
  36.8560353  69.1613041  53.2461541  36.1984028  69.8512303  53.3341669
  37.6600752  69.5509473  53.5895527  26.6086235  61.6283687  50.4901106
  27.1829987  61.4058869  49.7574299  27.1957217  61.6972382  51.2429707
  35.6665812  67.5157414  51.2965482  36.1797694  68.1487406  51.7987192
  36.3167036  66.9158610  50.9308842  26.9355822  63.6588148  44.5096991
  26.0993134  63.9962835  44.8306266  26.7960592  63.5237128  43.5724128
  28.9108902  58.5024936  49.2176175  28.2573315  58.1873953  48.5932790
  28.8689377  57.8800676  49.9435998  30.0220107  68.7844231  41.1329467
  29.1147169  68.5533485  41.3320616  30.5191139  67.9881850  41.3203449
  32.9288186  77.4941738  44.0526154  32.2549885  77.7973435  44.6611111
  33.3154008  78.2970819  43.7031611  32.1446643  64.9906870  53.5423823
  31.2269204  65.2121817  53.3845511  32.5606786  65.0653180  52.6835530
  32.9281691  66.3898285  48.6726503  33.6753510  66.9019682  48.3633625
  33.1973280  66.0682338  49.5330897  31.2008341  68.8856826  45.6553458
  30.2919560  68.6015859  45.7525927  31.2303425  69.3055905  44.7956764
  36.4327608  72.4963415  49.4244625  35.9789935  71.6554325  49.4809816
  35.8021575  73.1324814  49.7619405  35.3760528  63.4255401  50.6545293
  34.6383285  62.9132788  50.9855535  35.6287301  62.9855783  49.8428569
  34.8760547  74.3339912  50.3594443  35.1683522  74.8944969  49.6406809
  35.3859168  74.6268473  51.1147602  35.4772155  56.2031653  51.2487062
  35.7831032  55.3429017  50.9612977  36.2024760  56.7949274  51.0486056
  21.7696511  66.6062340  49.6368660  21.5720911  66.0131701  48.9119726
  21.2143175  66.3014550  50.3544599  29.7493235  66.4985447  51.7563253
  29.8041845  65.5459283  51.6805729  28.9384437  66.6544886  52.2404551
  30.8984429  70.4265570  42.9941536  30.4603858  69.7101429  42.5347173
  31.6394869  70.6541684  42.4326627  27.6885595  65.1162506  49.5153632
  26.8753460  65.4156677  49.9218824  28.1844589  64.7218195  50.2328114
  29.8394173  75.1120263  51.4487896  29.7970351  75.3381110  50.5196428
  30.7556871  74.8783638  51.5973698  33.2859806  65.5804331  58.3468526
  33.6409194  65.8075804  59.2062991  33.9331938  65.9122708  57.7245781
  39.0157543  68.7022767  49.0517855  38.8775442  68.8924363  48.1239044
  38.6593762  69.4642149  49.5085906  27.1799669  62.6880862  55.1314867
  27.8199049  62.5469621  54.4337830  26.3477200  62.4015375  54.7553469
  39.0426923  70.7699294  54.0629126  39.4763430  70.6774583  54.9112180
  39.7558504  70.7456794  53.4249142  27.9559973  71.9883292  51.2449859
  28.7500572  71.4933612  51.0432434  27.2451666  71.4601155  50.8817565
  32.7754818  74.3701388  55.5962227  32.8291840  74.9392324  56.3639943
  31.9069599  74.5403273  55.2316264  24.2642737  66.1326374  47.3209612
  23.3340325  66.0710829  47.5379574  24.3600209  65.6102327  46.5246253
  24.1828286  62.6581187  49.9087853  24.4435103  63.5726520  49.7997014
  25.0045458  62.1905629  50.0584466  25.6553211  64.0718944  57.0786678
  26.3276265  63.8636306  56.4299327  24.8282998  63.8741030  56.6391910
  39.9042473  70.8122994  56.5962012  40.0978363  71.7168805  56.8421286
  39.8043091  70.3530413  57.4300597  31.5578783  60.6980885  59.0952339
  30.9106698  61.3970835  59.0016815  32.3279799  61.1317029  59.4628587
  34.9657581  70.9629737  62.1702892  34.8143088  70.7340289  61.2532976
  34.9562261  71.9200338  62.1834237  31.7342918  68.5361650  57.1549159
  32.6634978  68.6872809  56.9818126  31.3133948  68.6245671  56.2997805
  30.5331249  72.5612314  54.9247696  30.3942335  72.1931099  55.7973634
  29.7445846  73.0759954  54.7531654  31.1279401  77.6621411  46.2673233
  31.3031157  77.1909454  47.0818855  30.4412189  78.2887177  46.4954493
  32.0836465  71.9393917  52.3136534  31.7486297  71.8994687  53.2094184
  31.5840410  71.2738633  51.8406944  26.0580708  67.3461547  57.8389115
  25.9200506  66.6141786  58.4400654  26.9685632  67.2570447  57.5573303
  35.0195656  69.2849951  42.5873594  34.4024827  68.5596779  42.4906646
  34.5512145  70.0459312  42.2440668  28.6863009  67.0581506  57.3272795
  29.3962628  66.4174698  57.2859413  28.6432317  67.3094401  58.2498976
  36.6749788  73.9948860  60.2479374  36.6162334  73.3108080  59.5809957
  37.0769306  74.7367850  59.7960000  27.3991943  64.0446724  59.1468434
  26.8629300  63.5937463  59.7990031  26.8108652  64.1792633  58.4038899
  25.6940487  80.8110773  53.0413093  25.9337085  81.4429298  53.7192111
  24.8509683  80.4598813  53.3278452  26.8094202  63.5035376  41.7094898
  25.9323668  63.3824176  41.3457145  27.2851955  62.7121454  41.4573787
  36.6767195  71.9588444  58.4793354  35.7893974  71.6214365  58.6019753
  37.2465746  71.2271475  58.7162119  18.3296342  68.2912535  51.8036405
  19.0167382  67.9774265  51.2157420  18.1744471  69.1953900  51.5303657
  23.1331064  63.1802732  56.2321429  23.0489253  62.5728401  55.4971839
  22.3113771  63.6711750  56.2330925  30.2068349  76.6189896  55.4454597
  30.1338520  77.4244867  55.9573901  29.7645742  76.8181862  54.6202618
  29.9958128  75.8561666  48.9557418  29.2125650  76.3983346  49.0495643
  30.6950873  76.3735646  49.3551660  33.3054778  61.6656295  51.5991624
  33.8023478  60.9126258  51.2792694  32.5341760  61.7020612  51.0334833
  41.1584536  67.3696661  53.2409915  41.1474412  68.2521376  52.8703848
  40.2901915  67.0168212  53.0464452  32.6667032  76.5176730  57.6012756
  33.3795004  77.1524195  57.5288657  32.1757061  76.6140596  56.7852757
  34.3884559  70.4227983  49.1730047  33.4540838  70.5429445  49.0034752
  34.5661227  69.5200449  48.9090057  29.8889747  63.8073678  51.3263308
  29.5187535  63.2544719  52.0144214  30.3848839  63.2031812  50.7738308
  37.7757110  66.2645302  49.7080081  38.2417562  67.0973293  49.6340384
  38.2264611  65.7990283  50.4125340  27.7178946  74.2671173  58.4218326
  28.4188405  74.9007656  58.5747721  27.2474061  74.6085905  57.6613966
  35.8433341  72.6089123  46.7066233  36.1193185  72.4945718  47.6160108
  34.9737840  72.2106608  46.6678407  35.7473773  58.6325889  53.7470983
  34.8336853  58.8630116  53.9153190  36.1766874  58.7164333  54.5985015
  35.5180232  66.8215781  56.2470877  34.8651682  67.0691688  55.5923330
  35.8960611  66.0079919  55.9133354  32.4787405  76.8575474  50.3499047
  32.6609800  76.0397130  50.8126799  33.3020391  77.0743166  49.9123937
  32.8129571  75.7843659  47.6114096  33.3417337  75.2736114  46.9984258
  33.0757790  75.4686189  48.4759629  31.5667805  67.5635592  62.7336914
  30.8908442  67.4629721  63.4039289  32.3895438  67.4074806  63.1972911
  23.3146664  73.8007528  55.3549429  23.9000100  73.0551216  55.4877333
  23.1171502  74.1111485  56.2386093  26.1685319  76.8358776  50.3711871
  25.4995694  77.3204903  49.8875912  26.0298189  77.0827996  51.2855250
  17.9064318  66.3713129  54.0753872  17.9448418  65.8376719  54.8690990
  17.4004611  65.8448334  53.4564849  30.3090587  78.8702519  56.9694530
  30.8608895  79.0334141  57.7343615  30.6496781  79.4606957  56.2974555
  25.2855081  61.2177669  57.5716415  25.3496407  62.0792500  57.1593812
  25.2222201  60.6051671  56.8388773  24.7607353  63.2900802  61.2189449
  25.3879392  62.9077879  61.8326973  23.9035272  63.0715004  61.5845141
  35.1601462  73.6963777  62.8243184  35.7041366  74.3093735  62.3298139
  34.5788307  74.2543355  63.3410197  21.5372896  65.0977231  47.1507804
  21.8326337  64.1887909  47.0974857  20.6360932  65.0764970  46.8288806
  33.4458975  76.8184495  53.9558212  33.3210114  76.0174235  53.4469157
  34.1038066  77.3130688  53.4672182  25.0667143  63.1733227  53.1335352
  24.3453729  63.7869195  52.9942826  25.8560399  63.7090992  53.0551998
  35.5093883  74.6193515  55.5837762  34.5624219  74.4998866  55.5116089
  35.8576656  73.7316013  55.6664024  27.8693456  60.5087654  59.4076004
  28.3927858  60.7549950  60.1702313  27.6505790  61.3407689  58.9879141
  23.2660738  62.7791328  47.2747129  22.9373444  61.8988707  47.0922235
  23.6200108  62.7238997  48.1623518  32.5140316  74.4146231  51.7842114
  32.3665279  73.4862939  51.9649684  33.3393810  74.4366322  51.2999190
  26.3802561  63.0664298  47.6422606  26.7198633  63.5950220  46.9201215
  26.8274681  63.4044704  48.4181173  36.1174438  75.2374790  52.8706987
  37.0420986  75.0317651  52.7331438  35.9489742  74.9891191  53.7796329
  29.0746002  61.4501349  57.0925675  28.7342822  60.6509162  57.4946354
  28.3685008  61.7503060  56.5202508  29.7262473  58.5350661  55.5452998
  30.5488543  58.0611140  55.4231888  29.9700537  59.3141145  56.0451684
  28.3670708  61.5638920  45.8415899  29.0879070  61.9420173  45.3379616
  27.7436012  62.2827797  45.9450877  32.5101831  62.2684069  46.7774232
  32.7265445  63.1508707  46.4763060  32.0295898  61.8770282  46.0479874
  27.2501052  65.2269782  53.3544976  27.1045633  65.5410085  54.2469258
  26.7726256  65.8454682  52.8015875  29.1097435  62.2172330  53.4025866
  29.0959004  61.3213423  53.0658164  29.8269863  62.2242994  54.0364152
  30.9623566  62.6509670  55.4478993  30.7041344  63.5726741  55.4463324
  30.4308606  62.2540105  56.1379457  35.9069754  75.7560457  48.2269079
  36.0806632  75.1906880  47.4742931  36.3998646  76.5561352  48.0448568
  21.7246714  67.7675126  56.2932637  21.1800182  68.5434934  56.4252912
  22.6026064  68.1145931  56.1351759  28.5134331  61.0986710  48.6713436
  28.6350242  60.1703357  48.8704323  28.2236373  61.1125396  47.7591751
  31.3825521  58.7841621  51.8080156  31.4047218  58.8480954  50.8532135
  31.7993580  57.9446129  52.0020662  41.7609146  68.5196880  49.8459378
  42.2040292  67.7704206  49.4478502  40.8835656  68.5107017  49.4633110
  36.8944927  75.0727222  45.3265977  37.5895832  75.6933914  45.5453291
  37.2368077  74.2222573  45.6018355  22.5112736  66.8945023  59.1862794
  21.7694472  67.0427658  59.7727425  22.1905480  67.1553288  58.3229544
  38.7936350  72.5226927  46.8553308  39.3187674  72.8614200  46.1302628
  38.7058703  71.5873943  46.6716442  30.4556399  76.4361001  58.9843184
  30.7643525  76.1910148  59.8565884  31.2531881  76.6407639  58.4962054
  30.4777011  78.5898911  51.2148561  30.0382001  78.0975289  51.9081417
  31.2285128  78.0471878  50.9740636  22.9569350  74.7810451  51.2173189
  23.7827370  74.4814223  50.8371832  22.6063402  74.0118074  51.6662977
  27.9250883  74.1336920  53.2870862  27.3030892  73.4707625  52.9873090
  28.5955750  74.1598052  52.6044510  21.1577955  72.6996778  52.1762122
  20.3209863  72.2718952  51.9946124  21.1301600  72.8929221  53.1132914
  27.9975410  62.6118708  62.8803368  28.0463566  63.4880831  62.4981138
  28.5397925  62.0696101  62.3075012  38.4830256  73.1559831  62.1604506
  37.6925800  73.1383970  61.6209005  38.2463611  73.6948125  62.9153542
  38.6028131  70.0052297  59.4737234  38.6526136  69.8402305  60.4152757
  38.4942055  69.1379556  59.0835115  27.4864390  72.6840843  46.7629323
  27.6352510  73.3676307  46.1095996  28.2930833  72.6645933  47.2778779
  35.8931894  65.9883225  60.7896541  36.7941756  65.8489690  60.4980539
  35.9679868  66.1537680  61.7294718  30.2274699  63.3650080  59.6349727
  29.3578008  63.6583646  59.3632316  30.4634179  63.9490525  60.3556991
  40.1046328  72.4249239  59.7179256  39.8131136  72.7879219  60.5542717
  39.4918459  71.7116247  59.5392588  41.3042010  69.9902119  52.2381826
  42.1388902  70.4291923  52.4019386  41.4401139  69.5140772  51.4190072
  38.3533516  67.5481853  58.1859314  38.8287638  67.7409500  57.3778165
  37.4299082  67.6041039  57.9402697  25.2417023  68.7106021  47.7690392
  24.9963065  67.8068351  47.9670602  25.4112937  68.7123171  46.8269870
  32.9313733  59.5829697  57.1515147  33.4495677  60.3190724  56.8261636
  32.5768865  59.8893690  57.9861907  24.5112670  64.4434378  45.2676553
  23.8181915  64.5178733  44.6116589  24.2664422  63.6794722  45.7898070
  33.1826327  56.0029980  52.6716044  33.4628081  55.3353169  53.2976471
  33.9676934  56.1959075  52.1590708  30.9859795  75.1788973  44.2341070
  30.4133762  75.7979161  43.7811542  31.5592589  75.7288335  44.7680992
  37.0535185  64.4247614  56.4187619  38.0052608  64.5245711  56.4399843
  36.8838636  63.6325882  56.9285704  35.0749565  61.5103197  56.6047020
  34.4799497  61.7908209  55.9093509  34.7899261  61.9997098  57.3763761
  34.2057055  75.4626124  45.3649653  35.1387728  75.3971685  45.5682528
  34.1180268  76.2982390  44.9064185  36.8345072  74.7791994  42.3253600
  36.7558703  74.4451858  43.2189358  37.6554739  75.2713762  42.3245073
  39.5323263  67.6453733  55.5329919  39.4999583  66.7069734  55.7189603
  40.1423887  67.7237770  54.7995744  31.3706594  66.5149786  41.5757123
  32.3165699  66.3855994  41.6445541  30.9920839  65.7764448  42.0526551
  39.6817752  64.4364777  55.5788202  39.1656800  63.6523233  55.3918131
  40.5657700  64.1083493  55.7434721  37.3428478  58.1805792  51.5384015
  37.1453300  57.8720880  52.4227347  37.9528184  58.9067431  51.6681945
  31.2545286  70.5667532  63.0357780  32.1748296  70.7446131  63.2297826
  31.2194869  69.6223578  62.8837479  29.5549511  64.4399763  41.5112008
  28.6480966  64.1432875  41.5874722  29.8325492  64.1429581  40.6446294
  20.4727451  65.7606126  51.9611055  20.1530236  64.9071434  51.6685429
  19.9260880  65.9754704  52.7169022  24.2507359  68.4768567  55.6780561
  24.4693369  69.4085675  55.6968595  24.6633133  68.1176541  56.4635365
  31.1711577  58.9836652  47.6656249  30.3612305  58.6383737  48.0411495
  31.8595994  58.6744196  48.2543861  33.1002125  58.0614699  49.2880546
  33.6533164  58.4810153  49.9470569  33.3372211  57.1350447  49.3303502
  29.1235224  64.0501773  65.0683310  29.0231951  64.9996130  64.9995401
  28.9056766  63.7220012  64.1959380  28.3248296  61.2986698  41.6523987
  29.1867460  61.6241596  41.9119805  28.5098640  60.5118194  41.1397053
  20.3415711  69.3809037  53.9304176  19.6479183  68.9662990  53.4174130
  21.0888702  69.4229574  53.3337595  36.4780932  60.1715224  48.7959210
  35.8979601  60.8300028  48.4137263  36.2116865  59.3492569  48.3846628
  28.9866494  67.4798912  63.8848372  28.5033576  68.2799272  64.0912261
  29.0727433  67.4906856  62.9315816  22.2552454  69.3127291  51.8070191
  22.2323142  69.4114979  50.8552074  22.5653090  70.1592442  52.1287357
  24.9139832  71.3703446  55.9216805  25.8683085  71.3387389  55.8546737
  24.7152355  70.9094070  56.7367031  25.5039214  69.9404562  58.4887603
  26.3232103  70.4348641  58.5122440  25.7776022  69.0236530  58.4605171
  35.2605810  62.3315315  47.8515559  34.3731665  62.6164965  47.6335753
  35.6759799  62.1709078  47.0042835  38.6120346  62.3561836  51.5669898
  39.3880736  62.8458288  51.8394515  37.8868480  62.7819890  52.0241767
  41.0492905  63.0689455  52.6243838  41.6437396  62.8285191  51.9137147
  41.1219489  62.3496585  53.2517375  23.2690061  76.9123066  52.9387003
  23.1344529  76.1523467  52.3725001  22.8522123  77.6363966  52.4715792
  34.4049024  72.0959989  41.9463579  35.1084874  72.3009992  42.5621234
  33.6811672  72.6636751  42.2112662  35.2346834  67.8469851  48.0665849
  35.1782035  68.3038402  47.2273481  35.7875176  67.0860535  47.8888691
  39.0451640  63.6359582  48.8915968  38.7888574  63.2356218  49.7224176
  38.4204508  64.3503376  48.7666107  43.3563978  66.3755656  51.3987260
  42.7963536  66.4448845  52.1718822  42.7507481  66.1996640  50.6786756
  26.4259186  77.8092383  53.1505446  26.3091571  78.7537815  53.0484136
  25.6051633  77.5065944  53.5391245  36.3135721  72.5342519  43.9962039
  37.1481325  72.1023717  43.8139513  36.1520064  72.3624532  44.9238933
  35.9681613  69.0374632  45.3618378  35.9130417  68.8718903  44.4206822
  35.3427668  69.7450665  45.5180568  20.7574128  64.2742696  59.1879800
  21.4032992  63.7641650  59.6767025  20.5491279  65.0111378  59.7623225
  33.2827520  71.3423544  64.6871941  34.1518680  71.5164196  64.3258576
  32.8034272  72.1617961  64.5647670  29.2777739  58.5382741  44.9403696
  29.2656408  59.4824581  45.0971967  30.1701161  58.3552886  44.6463157
  27.4513701  78.4620645  56.3661374  28.3540947  78.4944255  56.6827869
  27.2251071  77.5321096  56.3807710  29.2067303  77.2151631  53.0271453
  28.2562934  77.2153493  52.9135825  29.5099789  76.4684366  52.5107488
  33.0929858  55.1325517  49.1949633  32.3262254  54.5784004  49.3406315
  33.5040563  55.2047386  50.0563785  25.0971619  61.4210313  63.2854814
  25.9603081  61.0647118  63.4958139  24.5237030  61.0824208  63.9730219
  37.6096518  84.8575074  50.0175631  37.0461383  84.7665011  49.2491919
  37.4948913  84.0374979  50.4978124  35.1560950  86.3526266  52.8559851
  35.9482242  86.0117090  52.4406151  35.3957600  86.4621241  53.7762005
  43.1896077  88.5246042  45.3290096  42.5384057  89.1100122  44.9424110
  43.9840440  89.0552237  45.3885133  37.1151704  85.6135179  45.7277230
  37.8882580  85.0664166  45.5890106  37.4677103  86.4779428  45.9391692
  38.9536747  86.9411561  58.9344130  38.6626613  87.8457192  58.8190796
  39.5893731  86.9828089  59.6488199  39.8792953  84.3188410  55.5245489
  40.4756526  84.0944432  54.8102452  39.9367925  83.5773155  56.1270937
  39.4517982  81.7727845  43.3595680  39.7043502  81.2509366  42.5979143
  38.5142541  81.6093991  43.4622364  44.6671342  86.2136474  45.8659080
  44.0317175  86.2871100  46.5779985  44.3368748  86.8030073  45.1878159
  39.1714271  83.6755951  45.5620055  39.0550529  83.0000854  46.2301139
  39.2816530  83.1888325  44.7452208  41.5145811  83.1366098  49.2666744
  41.1504019  82.6096719  49.9779666  42.3712927  82.7464567  49.0933230
  41.1551298  78.1655998  44.2628093  41.3225701  79.0336234  44.6298564
  40.9648468  78.3283280  43.3389382  43.9126632  86.6272977  55.9293923
  43.6127355  87.5298016  55.8209730  43.5677691  86.3605160  56.7815076
  37.3639113  83.0786774  51.9630628  36.4389610  82.9462988  52.1708319
  37.6123526  83.8580993  52.4600570  41.1340519  80.6213655  45.2474760
  41.0140145  81.0670706  46.0860240  40.4393108  80.9698973  44.6888298
  34.7247924  82.7220047  52.7974417  34.8540305  82.9754526  53.7113828
  34.0445375  83.3147755  52.4779072  38.8947411  93.3917297  48.8964891
  38.8171441  94.3425122  48.9753371  38.2909055  93.0463170  49.5539817
  39.6411013  83.3730616  61.1144225  40.3825698  83.9115660  60.8379048
  38.9347999  83.9996905  61.2715777  45.4395168  86.0760947  53.4668675
  44.8104030  86.2406661  52.7644743  45.0520830  86.4902557  54.2379639
  40.9923130  85.8135355  50.7318760  41.4561475  86.0923058  49.9423383
  40.7279928  84.9118800  50.5491851  37.8847211  85.3606837  53.6698524
  38.4548568  85.7894105  53.0316008  38.4755323  85.0789421  54.3682709
  39.9292016  81.9358507  47.5408325  40.6316059  82.3879551  48.0082252
  39.5972644  81.2942326  48.1688219  38.3772377  80.5270264  61.9159535
  37.7471038  81.2086545  62.1494932  38.2708465  80.4153346  60.9712673
  33.6717350  80.1942060  52.8425459  32.8816404  80.4499589  52.3665570
  34.1628597  81.0090398  52.9477500  35.6232095  80.5586639  49.8008936
  34.8263258  80.6705334  50.3192431  35.3957687  80.8973292  48.9349826
  41.4537763  87.0831343  57.7491450  41.5182195  87.5451750  58.5849622
  40.7448687  86.4528708  57.8773760  31.9555053  80.4472551  55.2740450
  32.2063091  81.3319561  55.5398026  32.4914601  80.2677152  54.5015542
  41.1685780  88.7499450  47.6170431  41.0331455  89.5950986  48.0455278
  41.7095593  88.9518728  46.8536364  37.6553120  74.8291030  64.2784786
  37.2620066  74.2757229  64.9532430  38.4719260  75.1401608  64.6691303
  34.6215178  86.2674888  48.1898356  35.1339698  87.0618138  48.3403920
  35.2737891  85.5701179  48.1231957  36.4310062  89.3840644  50.2721109
  36.6076691  90.3058609  50.0842093  37.2266896  89.0699064  50.7015489
  35.7162419  81.4305276  60.1483272  35.6015934  80.5290534  60.4490371
  34.8606937  81.6768973  59.7968089  42.7954257  89.3723017  61.7470773
  42.3518111  88.5859395  61.4291677  43.4571470  89.5602167  61.0814664
  37.5541378  90.9018818  56.2731451  38.1048803  90.7735882  55.5008445
  36.7152854  91.2013707  55.9226344  44.8935495  89.6525817  59.7752174
  44.8753970  90.4734698  59.2832443  45.8155415  89.5279892  60.0002315
  41.3508549  87.1669946  60.6175682  41.8836886  86.4058234  60.3874990
  40.8222630  86.8743598  61.3599837  32.5864095  84.5963542  48.9657926
  33.4239317  85.0060551  48.7491634  32.7642362  83.6562985  48.9358120
  44.4828527  82.2638623  44.6541759  43.9675150  83.0343228  44.8930147
  44.2105835  81.5903759  45.2774821  42.0675638  77.1088324  49.7126998
  41.2117234  76.7195174  49.5332636  42.4802589  77.1880285  48.8526783
  39.8417670  74.7273397  53.1184739  40.7070667  74.5316206  52.7590629
  39.9095179  74.4983749  54.0454096  49.4562801  85.0170978  46.5894933
  48.6792244  84.6782137  46.1450095  50.1354282  85.0223601  45.9149898
  44.2714830  80.1365715  46.4801540  43.9664965  80.4511864  47.3311684
  45.2245272  80.2147135  46.5228873  42.7161262  86.2955939  48.1294494
  42.1882623  85.5608698  47.8167732  42.2148764  87.0730615  47.8834463
  47.6954108  84.4904959  53.2461541  47.0377782  85.1804220  53.3341669
  48.4994507  84.8801391  53.5895527  37.4479989  76.9575605  50.4901106
  38.0223741  76.7350786  49.7574299  38.0350972  77.0264299  51.2429707
  46.5059566  82.8449332  51.2965482  47.0191448  83.4779324  51.7987192
  47.1560790  82.2450527  50.9308842  37.7749576  78.9880066  44.5096991
  36.9386889  79.3254752  44.8306266  37.6354346  78.8529046  43.5724128
  39.7502657  73.8316854  49.2176175  39.0967069  73.5165871  48.5932790
  39.7083131  73.2092594  49.9435998  40.8613862  84.1136149  41.1329467
  39.9540924  83.8825402  41.3320616  41.3584894  83.3173768  41.3203449
  43.7681941  92.8233656  44.0526154  43.0943639  93.1265353  44.6611111
  44.1547763  93.6262736  43.7031611  43.7675445  81.7190203  48.6726503
  44.5147264  82.2311600  48.3633625  44.0367035  81.3974256  49.5330897
  42.0402095  84.2148744  45.6553458  41.1313315  83.9307776  45.7525927
  42.0697179  84.6347822  44.7956764  45.7154302  89.6631830  50.3594443
  46.0077276  90.2236887  49.6406809  46.2252922  89.9560391  51.1147602
  46.3165910  71.5323571  51.2487062  46.6224786  70.6720935  50.9612977
  47.0418514  72.1241191  51.0486056  32.6090266  81.9354258  49.6368660
  32.4114665  81.3423618  48.9119726  32.0536930  81.6306468  50.3544599
  40.5886989  81.8277364  51.7563253  40.6435599  80.8751201  51.6805729
  39.7778191  81.9836803  52.2404551  41.7378183  85.7557487  42.9941536
  41.2997613  85.0393346  42.5347173  42.4788624  85.9833602  42.4326627
  38.5279349  80.4454424  49.5153632  37.7147215  80.7448595  49.9218824
  39.0238343  80.0510113  50.2328114  40.6787927  90.4412181  51.4487896
  40.6364106  90.6673027  50.5196428  41.5950626  90.2075556  51.5973698
  38.0193424  78.0172780  55.1314867  38.6592803  77.8761539  54.4337830
  37.1870955  77.7307293  54.7553469  38.7953728  87.3175210  51.2449859
  39.5894326  86.8225530  51.0432434  38.0845420  86.7893073  50.8817565
  43.6148572  89.6993305  55.5962227  43.6685595  90.2684242  56.3639943
  42.7463354  89.8695190  55.2316264  35.1036491  81.4618292  47.3209612
  34.1734079  81.4002747  47.5379574  35.1993963  80.9394244  46.5246253
  35.0222040  77.9873104  49.9087853  35.2828858  78.9018438  49.7997014
  35.8439213  77.5197547  50.0584466  36.4946966  79.4010862  57.0786678
  37.1670019  79.1928224  56.4299327  35.6676752  79.2032948  56.6391910
  41.3725004  87.8904232  54.9247696  41.2336090  87.5223016  55.7973634
  40.5839600  88.4051871  54.7531654  41.9673156  92.9913328  46.2673233
  42.1424912  92.5201372  47.0818855  41.2805944  93.6179095  46.4954493
  42.9230219  87.2685835  52.3136534  42.5880052  87.2286605  53.2094184
  42.4234165  86.6030551  51.8406944  36.8974463  82.6753465  57.8389115
  36.7594261  81.9433703  58.4400654  37.8079386  82.5862365  57.5573303
  45.8589411  84.6141869  42.5873594  45.2418581  83.8888697  42.4906646
  45.3905899  85.3751229  42.2440668  39.5256764  82.3873424  57.3272795
  40.2356382  81.7466616  57.2859413  39.4826072  82.6386319  58.2498976
  47.5143542  89.3240777  60.2479374  47.4556088  88.6399997  59.5809957
  47.9163061  90.0659767  59.7960000  38.2385698  79.3738642  59.1468434
  37.7023055  78.9229380  59.7990031  37.6502406  79.5084551  58.4038899
  36.5334241  96.1402691  53.0413093  36.7730839  96.7721215  53.7192111
  35.6903438  95.7890731  53.3278452  37.6487957  78.8327293  41.7094898
  36.7717423  78.7116094  41.3457145  38.1245710  78.0413372  41.4573787
  29.1690097  83.6204453  51.8036405  29.8561137  83.3066183  51.2157420
  29.0138225  84.5245818  51.5303657  33.9724819  78.5094650  56.2321429
  33.8883008  77.9020319  55.4971839  33.1507525  79.0003668  56.2330925
  41.0462103  91.9481814  55.4454597  40.9732274  92.7536785  55.9573901
  40.6039496  92.1473779  54.6202618  40.8351883  91.1853584  48.9557418
  40.0519405  91.7275264  49.0495643  41.5344628  91.7027563  49.3551660
  43.5060787  91.8468648  57.6012756  44.2188759  92.4816112  57.5288657
  43.0150815  91.9432514  56.7852757  45.2278313  85.7519900  49.1730047
  44.2934592  85.8721363  49.0034752  45.4054982  84.8492367  48.9090057
  38.5572700  89.5963091  58.4218326  39.2582160  90.2299574  58.5747721
  38.0867815  89.9377823  57.6613966  46.6827096  87.9381041  46.7066233
  46.9586940  87.8237635  47.6160108  45.8131595  87.5398526  46.6678407
  43.3181160  92.1867392  50.3499047  43.5003554  91.3689048  50.8126799
  44.1414146  92.4035084  49.9123937  43.6523325  91.1135577  47.6114096
  44.1811092  90.6028031  46.9984258  43.9151545  90.7978107  48.4759629
  42.4061559  82.8927510  62.7336914  41.7302196  82.7921639  63.4039289
  43.2289193  82.7366723  63.1972911  34.1540418  89.1299446  55.3549429
  34.7393855  88.3843134  55.4877333  33.9565257  89.4403403  56.2386093
  37.0079073  92.1650694  50.3711871  36.3389449  92.6496821  49.8875912
  36.8691943  92.4119914  51.2855250  28.7458073  81.7005046  54.0753872
  28.7842172  81.1668637  54.8690990  28.2398366  81.1740252  53.4564849
  41.1484342  94.1994437  56.9694530  41.7002650  94.3626059  57.7343615
  41.4890535  94.7898875  56.2974555  36.1248835  76.5469587  57.5716415
  36.1890162  77.4084418  57.1593812  36.0615955  75.9343589  56.8388773
  35.6001108  78.6192719  61.2189449  36.2273146  78.2369797  61.8326973
  34.7429027  78.4006921  61.5845141  45.9995216  89.0255695  62.8243184
  46.5435120  89.6385653  62.3298139  45.4182061  89.5835273  63.3410197
  32.3766650  80.4269149  47.1507804  32.6720092  79.5179827  47.0974857
  31.4754686  80.4056888  46.8288806  44.2852729  92.1476413  53.9558212
  44.1603869  91.3466152  53.4469157  44.9431820  92.6422606  53.4672182
  35.9060897  78.5025145  53.1335352  35.1847483  79.1161113  52.9942826
  36.6954153  79.0382910  53.0551998  46.3487638  89.9485433  55.5837762
  45.4017973  89.8290784  55.5116089  46.6970411  89.0607931  55.6664024
  38.7087211  75.8379572  59.4076004  39.2321613  76.0841868  60.1702313
  38.4899544  76.6699606  58.9879141  34.1054492  78.1083246  47.2747129
  33.7767198  77.2280625  47.0922235  34.4593863  78.0530915  48.1623518
  43.3534071  89.7438149  51.7842114  43.2059033  88.8154856  51.9649684
  44.1787564  89.7658240  51.2999190  37.2196315  78.3956216  47.6422606
  37.5592388  78.9242137  46.9201215  37.6668436  78.7336622  48.4181173
  46.9568193  90.5666708  52.8706987  47.8814740  90.3609569  52.7331438
  46.7883496  90.3183109  53.7796329  40.5656228  73.8642579  55.5452998
  41.3882297  73.3903057  55.4231888  40.8094291  74.6433063  56.0451684
  39.2064462  76.8930838  45.8415899  39.9272825  77.2712090  45.3379616
  38.5829766  77.6119714  45.9450877  43.3495585  77.5975987  46.7774232
  43.5659200  78.4800624  46.4763060  42.8689652  77.2062200  46.0479874
  38.0894807  80.5561700  53.3544976  37.9439387  80.8702003  54.2469258
  37.6120010  81.1746600  52.8015875  46.7463509  91.0852375  48.2269079
  46.9200386  90.5198798  47.4742931  47.2392400  91.8853270  48.0448568
  32.5640469  83.0967044  56.2932637  32.0193937  83.8726852  56.4252912
  33.4419819  83.4437849  56.1351759  39.3528085  76.4278628  48.6713436
  39.4743997  75.4995274  48.8704323  39.0630128  76.4417314  47.7591751
  42.2219276  74.1133538  51.8080156  42.2440973  74.1772872  50.8532135
  42.6387335  73.2738047  52.0020662  47.7338681  90.4019139  45.3265977
  48.4289586  91.0225832  45.5453291  48.0761832  89.5514491  45.6018355
  33.3506491  82.2236940  59.1862794  32.6088227  82.3719576  59.7727425
  33.0299235  82.4845206  58.3229544  49.6330105  87.8518845  46.8553308
  50.1581429  88.1906118  46.1302628  49.5452457  86.9165860  46.6716442
  41.2950153  91.7652919  58.9843184  41.6037280  91.5202065  59.8565884
  42.0925635  91.9699557  58.4962054  41.3170765  93.9190828  51.2148561
  40.8775756  93.4267207  51.9081417  42.0678882  93.3763796  50.9740636
  33.7963104  90.1102369  51.2173189  34.6221124  89.8106141  50.8371832
  33.4457156  89.3409992  51.6662977  38.7644637  89.4628837  53.2870862
  38.1424647  88.7999542  52.9873090  39.4349504  89.4889969  52.6044510
  31.9971709  88.0288696  52.1762122  31.1603618  87.6010870  51.9946124
  31.9695355  88.2221139  53.1132914  38.8369165  77.9410625  62.8803368
  38.8857320  78.8172748  62.4981138  39.3791679  77.3988018  62.3075012
  49.3224011  88.4851749  62.1604506  48.5319554  88.4675887  61.6209005
  49.0857365  89.0240042  62.9153542  38.3258144  88.0132761  46.7629323
  38.4746265  88.6968225  46.1095996  39.1324588  87.9937851  47.2778779
  36.0810777  84.0397938  47.7690392  35.8356819  83.1360268  47.9670602
  36.2506692  84.0415089  46.8269870  35.3506425  79.7726296  45.2676553
  34.6575670  79.8470651  44.6116589  35.1058177  79.0086640  45.7898070
  44.0220081  71.3321897  52.6716044  44.3021835  70.6645086  53.2976471
  44.8070688  71.5250993  52.1590708  41.8253550  90.5080891  44.2341070
  41.2527517  91.1271078  43.7811542  42.3986344  91.0580253  44.7680992
  45.0450810  90.7918041  45.3649653  45.9781483  90.7263603  45.5682528
  44.9574022  91.6274308  44.9064185  47.6738826  90.1083912  42.3253600
  47.5952458  89.7743775  43.2189358  48.4948493  90.6005680  42.3245073
  42.2100348  81.8441704  41.5757123  43.1559453  81.7147912  41.6445541
  41.8314593  81.1056366  42.0526551  42.0939041  85.8959450  63.0357780
  43.0142050  86.0738049  63.2297826  42.0588624  84.9515495  62.8837479
  40.3943266  79.7691680  41.5112008  39.4874721  79.4724793  41.5874722
  40.6719247  79.4721498  40.6446294  31.3121206  81.0898044  51.9611055
  30.9923990  80.2363352  51.6685429  30.7654634  81.3046622  52.7169022
  35.0901113  83.8060485  55.6780561  35.3087123  84.7377593  55.6968595
  35.5026887  83.4468459  56.4635365  42.0105331  74.3128570  47.6656249
  41.2006060  73.9675655  48.0411495  42.6989748  74.0036114  48.2543861
  43.9395880  73.3906617  49.2880546  44.4926918  73.8102070  49.9470569
  44.1765966  72.4642365  49.3303502  39.9628979  79.3793690  65.0683310
  39.8625706  80.3288047  64.9995401  39.7450521  79.0511929  64.1959380
  39.1642050  76.6278616  41.6523987  40.0261214  76.9533514  41.9119805
  39.3492394  75.8410111  41.1397053  31.1809466  84.7100955  53.9304176
  30.4872937  84.2954908  53.4174130  31.9282457  84.7521492  53.3337595
  39.8260249  82.8090829  63.8848372  39.3427331  83.6091189  64.0912261
  39.9121188  82.8198774  62.9315816  33.0946208  84.6419209  51.8070191
  33.0716897  84.7406896  50.8552074  33.4046845  85.4884360  52.1287357
  35.7533586  86.6995364  55.9216805  36.7076840  86.6679306  55.8546737
  35.5546110  86.2385988  56.7367031  36.3432968  85.2696480  58.4887603
  37.1625857  85.7640559  58.5122440  36.6169776  84.3528448  58.4605171
  34.1083815  92.2414983  52.9387003  33.9738283  91.4815384  52.3725001
  33.6915877  92.9655883  52.4715792  45.2442778  87.4251907  41.9463579
  45.9478628  87.6301910  42.5621234  44.5205427  87.9928669  42.2112662
  46.0740588  83.1761768  48.0665849  46.0175790  83.6330320  47.2273481
  46.6268931  82.4152453  47.8888691  37.2652941  93.1384301  53.1505446
  37.1485325  94.0829733  53.0484136  36.4445387  92.8357862  53.5391245
  47.1529476  87.8634436  43.9962039  47.9875079  87.4315635  43.8139513
  46.9913818  87.6916450  44.9238933  46.8075368  84.3666550  45.3618378
  46.7524171  84.2010821  44.4206822  46.1821423  85.0742582  45.5180568
  31.5967883  79.6034614  59.1879800  32.2426746  79.0933568  59.6767025
  31.3885034  80.3403296  59.7623225  44.1221275  86.6715461  64.6871941
  44.9912435  86.8456114  64.3258576  43.6428026  87.4909878  64.5647670
  40.1171493  73.8674659  44.9403696  40.1050163  74.8116498  45.0971967
  41.0094915  73.6844804  44.6463157  38.2907455  93.7912562  56.3661374
  39.1934702  93.8236173  56.6827869  38.0644825  92.8613013  56.3807710
  40.0461057  92.5443549  53.0271453  39.0956688  92.5445411  52.9135825
  40.3493543  91.7976284  52.5107488  35.9365374  76.7502231  63.2854814
  36.7996835  76.3939036  63.4958139  35.3630784  76.4116126  63.9730219
  55.7813751  98.3804087  54.0917215  56.4192161  98.2610835  53.3880555
  55.6634594  99.3284931  54.1505167  52.5903457  98.3331515  54.0278740
  52.2521968  98.2172580  53.1399275  53.4593225  97.9322681  54.0079746
  48.4490273 100.1866992  50.0175631  47.8855138 100.0956929  49.2491919
  48.3342668  99.3666896  50.4978124  53.0723240  99.4866367  59.9864946
  53.0611881  99.0919165  59.1145449  53.2343879  98.7532440  60.5798717
  45.9954705 101.6818183  52.8559851  46.7875996 101.3409008  52.4406151
  46.2351355 101.7913158  53.7762005  54.0289831 103.8537960  45.3290096
  53.3777811 104.4392040  44.9424110  54.8234194 104.3844154  45.3885133
  47.9545458 100.9427097  45.7277230  48.7276334 100.3956084  45.5890106
  48.3070857 101.8071346  45.9391692  49.7930501 102.2703479  58.9344130
  49.5020367 103.1749110  58.8190796  50.4287485 102.3120007  59.6488199
  50.7186708  99.6480327  55.5245489  51.3150280  99.4236350  54.8102452
  50.7761679  98.9065073  56.1270937  50.2911736  97.1019763  43.3595680
  50.5437257  96.5801284  42.5979143  49.3536295  96.9385908  43.4622364
  55.3355019  96.1055541  51.1670423  56.1218108  95.6874964  50.8160840
  55.5993723  97.0101633  51.3352072  55.5065096 101.5428391  45.8659080
  54.8710929 101.6163018  46.5779985  55.1762503 102.1321990  45.1878159
  60.7363446  96.0430774  52.0703402  61.4688618  95.4729991  52.3041231
  59.9802802  95.6552375  52.5109907  50.0108025  99.0047869  45.5620055
  49.8944283  98.3292772  46.2301139  50.1210285  98.5180243  44.7452208
  52.3539566  98.4658016  49.2666744  51.9897773  97.9388637  49.9779666
  53.2106682  98.0756485  49.0933230  51.9945053  93.4947916  44.2628093
  52.1619455  94.3628152  44.6298564  51.8042222  93.6575197  43.3389382
  54.7520386 101.9564894  55.9293923  54.4521109 102.8589933  55.8209730
  54.4071446 101.6897078  56.7815076  48.2032868  98.4078691  51.9630628
  47.2783364  98.2754905  52.1708319  48.4517281  99.1872911  52.4600570
  58.1517530  94.4747435  53.6091361  57.2434407  94.4062843  53.3150122
  58.1005126  94.9519380  54.4373186  51.9734274  95.9505573  45.2474760
  51.8533899  96.3962624  46.0860240  51.2786862  96.2990891  44.6888298
  45.5641679  98.0511965  52.7974417  45.6934060  98.3046444  53.7113828
  44.8839130  98.6439673  52.4779072  52.2258396  95.8937080  61.5526258
  51.4491730  96.4531000  61.5429122  52.8648959  96.3793863  62.0741128
  57.6719340  96.4227046  46.0755094  58.5837196  96.6554433  45.9002791
  57.1628987  97.0064090  45.5130172  50.4804768  98.7022534  61.1144225
  51.2219452  99.2407578  60.8379048  49.7741753  99.3288822  61.2715777
  55.9560108 100.8451674  59.7116386  56.3643464 100.4034085  58.9671019
  55.2337369 100.2704302  59.9650579  56.2788922 101.4052865  53.4668675
  55.6497785 101.5698579  52.7644743  55.8914584 101.8194474  54.2379639
  60.1578154 102.3407303  50.8213039  59.4729192 102.7206204  50.2710072
  60.2422003 102.9502629  51.5544987  57.4129086  99.9867262  57.4208382
  57.6245981 100.6299021  56.7442764  57.3658834  99.1529578  56.9530313
  51.8316884 101.1427273  50.7318760  52.2955230 101.4214976  49.9423383
  51.5673682 100.2410717  50.5491851  48.7240965 100.6898754  53.6698524
  49.2942322 101.1186023  53.0316008  49.3149077 100.4081339  54.3682709
  50.7685770  97.2650425  47.5408325  51.4709814  97.7171469  48.0082252
  50.4366399  96.6234244  48.1688219  49.2166132  95.8562182  61.9159535
  48.5864792  96.5378463  62.1494932  49.1102220  95.7445263  60.9712673
  44.5111104  95.5233978  52.8425459  43.7210158  95.7791506  52.3665570
  45.0022352  96.3382316  52.9477500  58.5274914 102.8639217  55.5930740
  59.3492357 102.4619404  55.3113421  58.5237317 102.7607451  56.5446856
  46.4625850  95.8878557  49.8008936  45.6657013  95.9997251  50.3192431
  46.2351442  96.2265209  48.9349826  52.2931517 102.4123260  57.7491450
  52.3575950 102.8743668  58.5849622  51.5842441 101.7820625  57.8773760
  42.7948807  95.7764468  55.2740450  43.0456846  96.6611478  55.5398026
  43.3308356  95.5969070  54.5015542  66.6180907  99.2077965  51.9415711
  65.8644615  98.6385364  51.7859716  66.7528448  99.1740630  52.8886346
  52.0079535 104.0791368  47.6170431  51.8725210 104.9242904  48.0455278
  52.5489347 104.2810645  46.8536364  45.4608932 101.5966806  48.1898356
  45.9733453 102.3910056  48.3403920  46.1131645 100.8993096  48.1231957
  47.2703817 104.7132562  50.2721109  47.4470445 105.6350527  50.0842093
  48.0660650 104.3990981  50.7015489  51.4114835  91.5740827  61.8705042
  52.1524549  92.1747980  61.7909505  51.6432758  90.8318465  61.3123085
  46.5556173  96.7597194  60.1483272  46.4409689  95.8582451  60.4490371
  45.7000691  97.0060891  59.7968089  53.6348011 104.7014934  61.7470773
  53.1911865 103.9151313  61.4291677  54.2965225 104.8894085  61.0814664
  55.7329249 104.9817734  59.7752174  55.7147725 105.8026615  59.2832443
  56.6549169 104.8571809  60.0002315  52.1902303 102.4961864  60.6175682
  52.7230640 101.7350152  60.3874990  51.6616385 102.2035516  61.3599837
  43.4257849  99.9255460  48.9657926  44.2633071 100.3352468  48.7491634
  43.6036117  98.9854902  48.9358120  55.3222281  97.5930541  44.6541759
  54.8068905  98.3635145  44.8930147  55.0499590  96.9195677  45.2774821
  52.9069392  92.4380242  49.7126998  52.0510988  92.0487092  49.5332636
  53.3196344  92.5172202  48.8526783  60.2956555 100.3462895  46.5894933
  59.5185998 100.0074055  46.1450095  60.9748036 100.3515519  45.9149898
  55.1108584  95.4657633  46.4801540  54.8058720  95.7803782  47.3311684
  56.0639026  95.5439053  46.5228873  53.5555016 101.6247856  48.1294494
  53.0276378 100.8900616  47.8167732  53.0542519 102.4022533  47.8834463
  58.5347862  99.8196877  53.2461541  57.8771537 100.5096138  53.3341669
  59.3388261 100.2093309  53.5895527  48.2873744  92.2867522  50.4901106
  48.8617496  92.0642704  49.7574299  48.8744726  92.3556217  51.2429707
  57.3453321  98.1741249  51.2965482  57.8585203  98.8071241  51.7987192
  57.9954545  97.5742445  50.9308842  48.6143331  94.3171983  44.5096991
  47.7780643  94.6546670  44.8306266  48.4748100  94.1820963  43.5724128
  51.7007616  99.4428066  41.1329467  50.7934678  99.2117320  41.3320616
  52.1978648  98.6465686  41.3203449  53.8234152  95.6490705  53.5423823
  52.9056713  95.8705652  53.3845511  54.2394295  95.7237015  52.6835530
  54.6069200  97.0482121  48.6726503  55.3541019  97.5603518  48.3633625
  54.8760789  96.7266173  49.5330897  52.8795850  99.5440661  45.6553458
  51.9707069  99.2599694  45.7525927  52.9090934  99.9639740  44.7956764
  58.1115117 103.1547251  49.4244625  57.6577444 102.3138161  49.4809816
  57.4809084 103.7908649  49.7619405  57.0548037  94.0839237  50.6545293
  56.3170794  93.5716623  50.9855535  57.3074810  93.6439618  49.8428569
  56.5548056 104.9923748  50.3594443  56.8471031 105.5528805  49.6406809
  57.0646677 105.2852309  51.1147602  43.4484020  97.2646175  49.6368660
  43.2508420  96.6715536  48.9119726  42.8930684  96.9598386  50.3544599
  51.4280744  97.1569282  51.7563253  51.4829354  96.2043118  51.6805729
  50.6171946  97.3128721  52.2404551  52.5771938 101.0849405  42.9941536
  52.1391367 100.3685264  42.5347173  53.3182378 101.3125520  42.4326627
  49.3673104  95.7746342  49.5153632  48.5540969  96.0740512  49.9218824
  49.8632098  95.3802030  50.2328114  51.5181682 105.7704099  51.4487896
  51.4757860 105.9964945  50.5196428  52.4344380 105.5367473  51.5973698
  60.6945052  99.3606602  49.0517855  60.5562951  99.5508198  48.1239044
  60.3381271 100.1225985  49.5085906  60.7214432 101.4283129  54.0629126
  61.1550939 101.3358418  54.9112180  61.4346013 101.4040629  53.4249142
  49.6347482 102.6467128  51.2449859  50.4288081 102.1517448  51.0432434
  48.9239175 102.1184991  50.8817565  54.4542327 105.0285223  55.5962227
  54.5079349 105.5976159  56.3639943  53.5857108 105.1987108  55.2316264
  45.9430246  96.7910209  47.3209612  45.0127834  96.7294665  47.5379574
  46.0387718  96.2686162  46.5246253  45.8615795  93.3165022  49.9087853
  46.1222612  94.2310355  49.7997014  46.6832967  92.8489465  50.0584466
  47.3340720  94.7302779  57.0786678  48.0063774  94.5220141  56.4299327
  46.5070507  94.5324865  56.6391910  61.5829982 101.4706830  56.5962012
  61.7765872 102.3752640  56.8421286  61.4830600 101.0114249  57.4300597
  56.6445090 101.6213572  62.1702892  56.4930597 101.3924124  61.2532976
  56.6349770 102.5784174  62.1834237  53.4130427  99.1945485  57.1549159
  54.3422487  99.3456645  56.9818126  52.9921457  99.2829506  56.2997805
  52.2118758 103.2196150  54.9247696  52.0729844 102.8514934  55.7973634
  51.4233355 103.7343789  54.7531654  53.7623974 102.5977752  52.3136534
  53.4273806 102.5578522  53.2094184  53.2627919 101.9322468  51.8406944
  47.7368217  98.0045382  57.8389115  47.5988015  97.2725621  58.4400654
  48.6473141  97.9154282  57.5573303  56.6983165  99.9433787  42.5873594
  56.0812336  99.2180615  42.4906646  56.2299654 100.7043147  42.2440668
  50.3650518  97.7165342  57.3272795  51.0750137  97.0758534  57.2859413
  50.3219826  97.9678236  58.2498976  58.3537297 104.6532695  60.2479374
  58.2949843 103.9691915  59.5809957  58.7556815 105.3951685  59.7960000
  48.4881711  94.1619211  41.7094898  47.6111177  94.0408012  41.3457145
  48.9639464  93.3705289  41.4573787  58.3554704 102.6172279  58.4793354
  57.4681483 102.2798201  58.6019753  58.9253255 101.8855310  58.7162119
  40.0083851  98.9496371  51.8036405  40.6954891  98.6358101  51.2157420
  39.8531980  99.8537735  51.5303657  44.8118573  93.8386567  56.2321429
  44.7276762  93.2312237  55.4971839  43.9901280  94.3295586  56.2330925
  51.6745637 106.5145501  48.9557418  50.8913159 107.0567181  49.0495643
  52.3738382 107.0319481  49.3551660  62.8372045  98.0280496  53.2409915
  62.8261921  98.9105212  52.8703848  61.9689424  97.6752047  53.0464452
  54.3454541 107.1760565  57.6012756  55.0582513 107.8108030  57.5288657
  53.8544570 107.2724431  56.7852757  56.0672068 101.0811818  49.1730047
  55.1328347 101.2013280  49.0034752  56.2448736 100.1784285  48.9090057
  51.5677256  94.4657514  51.3263308  51.1975043  93.9128554  52.0144214
  52.0636348  93.8615647  50.7738308  59.4544619  96.9229137  49.7080081
  59.9205071  97.7557129  49.6340384  59.9052120  96.4574119  50.4125340
  49.3966455 104.9255009  58.4218326  50.0975914 105.5591492  58.5747721
  48.9261570 105.2669740  57.6613966  57.5220850 103.2672959  46.7066233
  57.7980694 103.1529553  47.6160108  56.6525349 102.8690443  46.6678407
  57.1967741  97.4799616  56.2470877  56.5439191  97.7275524  55.5923330
  57.5748120  96.6663754  55.9133354  54.1574914 107.5159309  50.3499047
  54.3397309 106.6980965  50.8126799  54.9807900 107.7327002  49.9123937
  54.4917080 106.4427495  47.6114096  55.0204846 105.9319949  46.9984258
  54.7545299 106.1270025  48.4759629  53.2455314  98.2219427  62.7336914
  52.5695951  98.1213557  63.4039289  54.0682947  98.0658641  63.1972911
  44.9934173 104.4591364  55.3549429  45.5787609 103.7135052  55.4877333
  44.7959011 104.7695321  56.2386093  39.5851827  97.0296964  54.0753872
  39.6235927  96.4960555  54.8690990  39.0792120  96.5032170  53.4564849
  46.9642590  91.8761505  57.5716415  47.0283916  92.7376335  57.1593812
  46.9009710  91.2635506  56.8388773  46.4394862  93.9484637  61.2189449
  47.0666901  93.5661714  61.8326973  45.5822781  93.7298839  61.5845141
  56.8388971 104.3547612  62.8243184  57.3828875 104.9677571  62.3298139
  56.2575816 104.9127191  63.3410197  43.2160405  95.7561066  47.1507804
  43.5113846  94.8471745  47.0974857  42.3148441  95.7348806  46.8288806
  55.1246484 107.4768330  53.9558212  54.9997623 106.6758070  53.4469157
  55.7825575 107.9714524  53.4672182  46.7454652  93.8317063  53.1335352
  46.0241238  94.4453030  52.9942826  47.5347908  94.3674828  53.0551998
  57.1881392 105.2777350  55.5837762  56.2411728 105.1582702  55.5116089
  57.5364165 104.3899848  55.6664024  44.9448247  93.4375164  47.2747129
  44.6160953  92.5572543  47.0922235  45.2987617  93.3822833  48.1623518
  54.1927825 105.0730067  51.7842114  54.0452788 104.1446774  51.9649684
  55.0181319 105.0950157  51.2999190  48.0590070  93.7248134  47.6422606
  48.3986142  94.2534055  46.9201215  48.5062190  94.0628540  48.4181173
  57.7961947 105.8958625  52.8706987  58.7208495 105.6901487  52.7331438
  57.6277251 105.6475026  53.7796329  50.0458217  92.2222755  45.8415899
  50.7666579  92.6004008  45.3379616  49.4223521  92.9411632  45.9450877
  54.1889340  92.9267904  46.7774232  54.4052954  93.8092542  46.4763060
  53.7083407  92.5354118  46.0479874  48.9288561  95.8853617  53.3544976
  48.7833142  96.1993920  54.2469258  48.4513765  96.5038518  52.8015875
  57.5857263 106.4144293  48.2269079  57.7594141 105.8490715  47.4742931
  58.0786155 107.2145188  48.0448568  43.4034223  98.4258962  56.2932637
  42.8587691  99.2018770  56.4252912  44.2813573  98.7729766  56.1351759
  50.1921840  91.7570546  48.6713436  50.3137751  90.8287192  48.8704323
  49.9023882  91.7709232  47.7591751  63.4396655  99.1780716  49.8459378
  63.8827801  98.4288041  49.4478502  62.5623165  99.1690852  49.4633110
  58.5732436 105.7311057  45.3265977  59.2683341 106.3517750  45.5453291
  58.9155586 104.8806408  45.6018355  44.1900245  97.5528858  59.1862794
  43.4481981  97.7011493  59.7727425  43.8692989  97.8137124  58.3229544
  60.4723859 103.1810763  46.8553308  60.9975183 103.5198035  46.1302628
  60.3846212 102.2457778  46.6716442  52.1343908 107.0944836  58.9843184
  52.4431034 106.8493983  59.8565884  52.9319390 107.2991475  58.4962054
  49.6038392 104.7920755  53.2870862  48.9818401 104.1291460  52.9873090
  50.2743259 104.8181887  52.6044510  42.8365464 103.3580613  52.1762122
  41.9997372 102.9302788  51.9946124  42.8089109 103.5513057  53.1132914
  49.6762919  93.2702543  62.8803368  49.7251075  94.1464666  62.4981138
  50.2185434  92.7279936  62.3075012  60.1617765 103.8143666  62.1604506
  59.3713309 103.7967805  61.6209005  59.9251120 104.3531960  62.9153542
  60.2815640 100.6636133  59.4737234  60.3313645 100.4986140  60.4152757
  60.1729563  99.7963392  59.0835115  49.1651899 103.3424678  46.7629323
  49.3140019 104.0260143  46.1095996  49.9718342 103.3229768  47.2778779
  57.5719403  96.6467061  60.7896541  58.4729265  96.5073526  60.4980539
  57.6467377  96.8121516  61.7294718  61.7833837 103.0833074  59.7179256
  61.4918645 103.4463055  60.5542717  61.1705968 102.3700082  59.5392588
  62.9829519 100.6485954  52.2381826  63.8176411 101.0875758  52.4019386
  63.1188648 100.1724607  51.4190072  60.0321025  98.2065689  58.1859314
  60.5075147  98.3993335  57.3778165  59.1086591  98.2624875  57.9402697
  46.9204532  99.3689856  47.7690392  46.6750574  98.4652186  47.9670602
  47.0900446  99.3707006  46.8269870  46.1900179  95.1018214  45.2676553
  45.4969424  95.1762569  44.6116589  45.9451931  94.3378557  45.7898070
  52.6647304 105.8372809  44.2341070  52.0921271 106.4562996  43.7811542
  53.2380098 106.3872171  44.7680992  55.8844564 106.1209959  45.3649653
  56.8175237 106.0555521  45.5682528  55.7967777 106.9566226  44.9064185
  58.5132581 105.4375829  42.3253600  58.4346212 105.1035693  43.2189358
  59.3342248 105.9297597  42.3245073  61.2110772  98.3037569  55.5329919
  61.1787092  97.3653569  55.7189603  61.8211396  98.3821605  54.7995744
  53.0494103  97.1733622  41.5757123  53.9953208  97.0439830  41.6445541
  52.6708348  96.4348283  42.0526551  61.3605260  95.0948612  55.5788202
  60.8444309  94.3107069  55.3918131  62.2445209  94.7667329  55.7434721
  67.0287322  99.3653575  54.6735956  67.7590710  99.1038864  55.2343659
  66.4194267  98.6282297  54.7138024  65.1102619  97.5061438  55.2710407
  64.3835783  97.3717403  54.6626898  64.6949906  97.8138267  56.0767125
  52.9332795 101.2251368  63.0357780  53.8535805 101.4029967  63.2297826
  52.8982378 100.2807413  62.8837479  51.2337020  95.0983598  41.5112008
  50.3268475  94.8016711  41.5874722  51.5113001  94.8013416  40.6446294
  42.1514960  96.4189961  51.9611055  41.8317745  95.5655270  51.6685429
  41.6048389  96.6338540  52.7169022  45.9294868  99.1352402  55.6780561
  46.1480878 100.0669510  55.6968595  46.3420642  98.7760377  56.4635365
  50.8022733  94.7085608  65.0683310  50.7019460  95.6579965  64.9995401
  50.5844275  94.3803847  64.1959380  50.0035805  91.9570533  41.6523987
  50.8654969  92.2825431  41.9119805  50.1886149  91.1702029  41.1397053
  42.0203220 100.0392873  53.9304176  41.3266692  99.6246826  53.4174130
  42.7676211 100.0813409  53.3337595  50.6654003  98.1382747  63.8848372
  50.1821085  98.9383107  64.0912261  50.7514942  98.1490692  62.9315816
  43.9339963  99.9711127  51.8070191  43.9110651 100.0698814  50.8552074
  44.2440599 100.8176277  52.1287357  46.5927341 102.0287282  55.9216805
  47.5470594 101.9971224  55.8546737  46.3939864 101.5677905  56.7367031
  47.1826723 100.5988398  58.4887603  48.0019612 101.0932476  58.5122440
  47.4563531  99.6820366  58.4605171  56.9393319  92.9899150  47.8515559
  56.0519174  93.2748801  47.6335753  57.3547308  92.8292913  47.0042835
  60.2907855  93.0145671  51.5669898  61.0668245  93.5042123  51.8394515
  59.5655989  93.4403725  52.0241767  56.0836533 102.7543825  41.9463579
  56.7872383 102.9593827  42.5621234  55.3599181 103.3220587  42.2112662
  56.9134343  98.5053686  48.0665849  56.8569544  98.9622237  47.2273481
  57.4662685  97.7444371  47.8888691  65.0351487  97.0339491  51.3987260
  64.4751045  97.1032680  52.1718822  64.4294990  96.8580476  50.6786756
  57.9923230 103.1926354  43.9962039  58.8268834 102.7607552  43.8139513
  57.8307573 103.0208368  44.9238933  57.6469122  99.6958467  45.3618378
  57.5917926  99.5302739  44.4206822  57.0215177 100.4034500  45.5180568
  42.4361637  94.9326532  59.1879800  43.0820501  94.4225486  59.6767025
  42.2278788  95.6695213  59.7623225  54.9615029 102.0007379  64.6871941
  55.8306189 102.1748031  64.3258576  54.4821781 102.8201796  64.5647670
  50.9565248  89.1966576  44.9403696  50.9443917  90.1408416  45.0971967
  51.8488670  89.0136722  44.6463157  46.7759128  92.0794149  63.2854814
  47.6390590  91.7230954  63.4958139  46.2024539  91.7408043  63.9730219
  66.1748774 111.4347459  51.1670423  66.9611863 111.0166882  50.8160840
  66.4387478 112.3393551  51.3352072  71.5757201 111.3722692  52.0703402
  72.3082373 110.8021909  52.3041231  70.8196556 110.9844293  52.5109907
  69.0982621 105.0844266  56.5298010  68.7665946 105.9539677  56.3059225
  68.5028234 104.7680550  57.2092041  62.8338807 108.8239833  44.2628093
  63.0013210 109.6920070  44.6298564  62.6435976 108.9867115  43.3389382
  68.9911284 109.8039352  53.6091361  68.0828162 109.7354761  53.3150122
  68.9398880 110.2811297  54.4373186  70.8572931 108.0055791  55.3869234
  70.2147311 108.2988324  54.7409029  70.3527859 107.8908711  56.1922431
  68.5113094 111.7518964  46.0755094  69.4230951 111.9846351  45.9002791
  68.0022742 112.3356008  45.5130172  63.1484932 111.1116199  57.0849943
  63.9946127 111.5355612  57.2284592  63.0883570 110.4549823  57.7788506
  66.2984377 108.7720567  58.7431117  66.0545309 109.5262627  58.2065393
  66.5744308 109.1505914  59.5778364  65.8549069 107.9277000  54.3244955
  64.9933548 108.2258253  54.6161692  65.8811504 108.1447399  53.3925987
  59.3340629 105.4874865  64.2784786  58.9407575 104.9341064  64.9532430
  60.1506769 105.7985444  64.6691303  62.2508590 106.9032744  61.8705042
  62.9918303 107.5039898  61.7909505  62.4826513 106.1610382  61.3123085
  66.1965753 102.9313847  56.1469324  65.8530022 103.8215489  56.0708435
  66.5644715 102.7415505  55.2838909  63.7463147 107.7672159  49.7126998
  62.8904743 107.3779010  49.5332636  64.1590098 107.8464120  48.8526783
  65.2762293 105.3018502  54.1118557  64.7727089 105.2648638  53.2986363
  65.5692900 106.2111245  54.1715214  61.5205179 105.3857232  53.1184739
  62.3858176 105.1900041  52.7590629  61.5882688 105.1567584  54.0454096
  65.9502339 110.7949551  46.4801540  65.6452474 111.1095700  47.3311684
  66.9032781 110.8730970  46.5228873  59.1267498 107.6159440  50.4901106
  59.7011250 107.3934622  49.7574299  59.7138481 107.6848135  51.2429707
  61.4290166 104.4900689  49.2176175  60.7754578 104.1749706  48.5932790
  61.3870640 103.8676430  49.9435998  64.6627906 110.9782623  53.5423823
  63.7450468 111.1997570  53.3845511  65.0788050 111.0528933  52.6835530
  67.8941791 109.4131155  50.6545293  67.1564548 108.9008541  50.9855535
  68.1468565 108.9731536  49.8428569  67.9953419 102.1907407  51.2487062
  68.3012295 101.3304770  50.9612977  68.7206023 102.7825027  51.0486056
  65.8041070 111.5680084  58.3468526  66.1590458 111.7951557  59.2062991
  66.4513201 111.8998461  57.7245781  59.6980933 108.6756615  55.1314867
  60.3380312 108.5345374  54.4337830  58.8658464 108.3891128  54.7553469
  64.0760047 106.6856638  59.0952339  63.4287962 107.3846588  59.0016815
  64.8461062 107.1192782  59.4628587  59.9173207 110.0322477  59.1468434
  59.3810564 109.5813216  59.7990031  59.3289915 110.1668386  58.4038899
  59.3275466 109.4911129  41.7094898  58.4504932 109.3699929  41.3457145
  59.8033219 108.6997207  41.4573787  65.8236042 107.6532048  51.5991624
  66.3204741 106.9002011  51.2792694  65.0523023 107.6896365  51.0334833
  62.4071010 109.7949431  51.3263308  62.0368798 109.2420472  52.0144214
  62.9030103 109.1907565  50.7738308  70.2938374 112.2521055  49.7080081
  70.7598826 113.0849047  49.6340384  70.7445874 111.7866037  50.4125340
  68.2655037 104.6201642  53.7470983  67.3518116 104.8505869  53.9153190
  68.6948138 104.7040086  54.5985015  57.8036344 107.2053422  57.5716415
  57.8677671 108.0668253  57.1593812  57.7403464 106.5927424  56.8388773
  57.2788617 109.2776555  61.2189449  57.9060655 108.8953632  61.8326973
  56.4216536 109.0590757  61.5845141  60.3874720 106.4963407  59.4076004
  60.9109122 106.7425703  60.1702313  60.1687053 107.3283442  58.9879141
  55.7842001 108.7667082  47.2747129  55.4554707 107.8864460  47.0922235
  56.1381372 108.7114750  48.1623518  58.8983824 109.0540051  47.6422606
  59.2379897 109.5825973  46.9201215  59.3455945 109.3920457  48.4181173
  61.5927265 107.4377102  57.0925675  61.2524085 106.6384915  57.4946354
  60.8866271 107.7378813  56.5202508  62.2443737 104.5226414  55.5452998
  63.0669806 104.0486893  55.4231888  62.4881800 105.3016898  56.0451684
  60.8851971 107.5514673  45.8415899  61.6060334 107.9295926  45.3379616
  60.2617275 108.2703550  45.9450877  65.0283094 108.2559822  46.7774232
  65.2446709 109.1384460  46.4763060  64.5477161 107.8646035  46.0479874
  61.6278698 108.2048083  53.4025866  61.6140267 107.3089176  53.0658164
  62.3451127 108.2118747  54.0364152  63.4804829 108.6385423  55.4478993
  63.2222607 109.5602494  55.4463324  62.9489870 108.2415858  56.1379457
  61.0315594 107.0862463  48.6713436  61.1531506 106.1579110  48.8704323
  60.7417637 107.1001149  47.7591751  63.9006785 104.7717374  51.8080156
  63.9228482 104.8356707  50.8532135  64.3174844 103.9321882  52.0020662
  60.5156674 108.5994461  62.8803368  60.5644829 109.4756584  62.4981138
  61.0579188 108.0571854  62.3075012  68.4113157 111.9758978  60.7896541
  69.3123020 111.8365443  60.4980539  68.4861132 112.1413433  61.7294718
  62.7455962 109.3525833  59.6349727  61.8759272 109.6459399  59.3632316
  62.9815443 109.9366278  60.3556991  65.4494996 105.5705450  57.1515147
  65.9676940 106.3066477  56.8261636  65.0950129 105.8769443  57.9861907
  65.7007590 101.9905733  52.6716044  65.9809344 101.3228922  53.2976471
  66.4858197 102.1834828  52.1590708  69.5716449 110.4123367  56.4187619
  70.5233872 110.5121464  56.4399843  69.4019899 109.6201635  56.9285704
  67.5930828 107.4978950  56.6047020  66.9980760 107.7783963  55.9093509
  67.3080525 107.9872851  57.3763761  72.1999015 110.4240530  55.5788202
  71.6838064 109.6398986  55.3918131  73.0838964 110.0959246  55.7434721
  69.8609742 104.1681545  51.5384015  69.6634563 103.8596633  52.4227347
  70.4709447 104.8943184  51.6681945  62.0730775 110.4275516  41.5112008
  61.1662230 110.1308628  41.5874722  62.3506756 110.1305334  40.6446294
  63.6892840 104.9712405  47.6656249  62.8793569 104.6259490  48.0411495
  64.3777257 104.6619949  48.2543861  65.6183389 104.0490452  49.2880546
  66.1714427 104.4685906  49.9470569  65.8553475 103.1226200  49.3303502
  60.8429559 107.2862451  41.6523987  61.7048723 107.6117349  41.9119805
  61.0279903 106.4993947  41.1397053  68.9962196 106.1590977  48.7959210
  68.4160865 106.8175781  48.4137263  68.7298128 105.3368322  48.3846628
  67.4465762 105.5596035  50.9980531  67.9465540 105.6712570  50.1894849
  68.0901370 105.2557088  51.6381339  67.7787074 108.3191068  47.8515559
  66.8912929 108.6040718  47.6335753  68.1941063 108.1584831  47.0042835
  71.1301610 108.3437589  51.5669898  71.9062000 108.8334041  51.8394515
  70.4049744 108.7695643  52.0241767  73.5674168 109.0565208  52.6243838
  74.1618659 108.8160944  51.9137147  73.6400752 108.3372338  53.2517375
  71.5632903 109.6235335  48.8915968  71.3069838 109.2231971  49.7224176
  70.9385771 110.3379129  48.7666107  61.7959002 104.5258494  44.9403696
  61.7837672 105.4700334  45.0971967  62.6882424 104.3428639  44.6463157
  65.6111122 101.1201271  49.1949633  64.8443517 100.5659757  49.3406315
  66.0221827 101.1923139  50.0563785  57.6152883 107.4086066  63.2854814
  58.4784344 107.0522871  63.4958139  57.0418293 107.0699961  63.9730219
  12.4238734  14.0698539  40.8162522  13.0617144  13.9505287  40.1125862
  12.3059577  15.0179383  40.8750474   9.2328440  14.0225967  40.7524047
   8.8946952  13.9067032  39.8644582  10.1018208  13.6217132  40.7325053
   5.0915256  15.8761444  36.7420938   4.5280121  15.7851381  35.9737225
   4.9767651  15.0561348  37.2223430   9.7148223  15.1760819  46.7110252
   9.7036864  14.7813617  45.8390756   9.8768863  14.4426892  47.3044024
   2.6379688  17.3712635  39.5805158   3.4300980  17.0303460  39.1651457
   2.8776338  17.4807610  40.5007311  10.6714815  19.5432411  32.0535403
  10.0202794  20.1286492  31.6669416  11.4659177  20.0738606  32.1130440
   4.5970442  16.6321549  32.4522537   5.3701318  16.0850536  32.3135413
   4.9495841  17.4965798  32.6636998   6.4355484  17.9597931  45.6589436
   6.1445350  18.8643562  45.5436103   7.0712469  18.0014458  46.3733506
   7.3611691  15.3374779  42.2490796   7.9575263  15.1130802  41.5347759
   7.4186663  14.5959525  42.8516244  11.9780002  11.7949993  37.8915730
  12.7643092  11.3769416  37.5406147  12.2418707  12.6996085  38.0597378
  12.1490080  17.2322843  32.5904387  11.5135913  17.3057470  33.3025291
  11.8187486  17.8216442  31.9123466  17.3788430  11.7325226  38.7948709
  18.1113601  11.1624443  39.0286538  16.6227785  11.3446827  39.2355214
   6.6533008  14.6942321  32.2865362   6.5369266  14.0187224  32.9546446
   6.7635268  14.2074695  31.4697515   8.9964549  14.1552468  35.9912051
   8.6322756  13.6283089  36.7024972   9.8531665  13.7650937  35.8178536
  11.3945369  17.6459346  42.6539230  11.0946092  18.5484385  42.5455037
  11.0496429  17.3791530  43.5060383   4.8457851  14.0973143  38.6875934
   3.9208347  13.9649357  38.8953626   5.0942264  14.8767362  39.1845877
  14.7942513  10.1641887  40.3336667  13.8859391  10.0957295  40.0395428
  14.7430109  10.6413831  41.1618493   8.6159257  11.6400025  31.9720066
   8.4958882  12.0857076  32.8105547   7.9211845  11.9885343  31.4133604
   6.3766149  24.4103667  35.6210198   6.2990179  25.3611492  35.6998678
   5.7727793  24.0649539  36.2785124   8.8683379  11.5831532  48.2771564
   8.0916713  12.1425452  48.2674429   9.5073942  12.0688315  48.7986435
  16.6604160   8.3658325  42.1114541  16.0178540   8.6590858  41.4654336
  16.1559088   8.2511245  42.9167738  14.3144323  12.1121498  32.8000400
  15.2262179  12.3448885  32.6248098  13.8053970  12.6958542  32.2375479
   7.1229751  14.3916986  47.8389531   7.8644436  14.9302029  47.5624355
   6.4166737  15.0183274  47.9961083  12.5985091  16.5346126  46.4361693
  13.0068447  16.0928536  45.6916325  11.8762352  15.9598753  46.6895886
   8.9516161  11.4718733  43.8095250   9.7977356  11.8958146  43.9529899
   8.8914799  10.8152357  44.5033813  12.9213906  17.0947317  40.1913982
  12.2922768  17.2593031  39.4890050  12.5339568  17.5088926  40.9624946
  16.8003137  18.0301754  37.5458346  16.1154176  18.4100656  36.9955379
  16.8846987  18.6397081  38.2790293  12.1015606   9.1323101  45.4676424
  11.8576538   9.8865162  44.9310699  12.3775537   9.5108449  46.3023671
  14.0554069  15.6761713  44.1453689  14.2670964  16.3193473  43.4688070
  14.0083817  14.8424030  43.6775619  11.6580298   8.2879534  41.0490261
  10.7964777   8.5860788  41.3406999  11.6842733   8.5049933  40.1171294
   8.4741867  16.8321725  37.4564067   8.9380213  17.1109428  36.6668689
   8.2098666  15.9305169  37.2737158   5.3665949  16.3793206  40.3943830
   5.9367306  16.8080475  39.7561315   5.9574060  16.0975791  41.0928016
   7.4110754  12.9544877  34.2653632   8.1134797  13.4065921  34.7327558
   7.0791382  12.3128696  34.8933525  15.1699897  18.5533669  42.3176046
  15.9917341  18.1513856  42.0358728  15.1662300  18.4501903  43.2692162
   8.9356500  18.1017712  44.4736757   9.0000933  18.5638119  45.3094929
   8.2267424  17.4715077  44.6019067  23.2605890  14.8972417  38.6661018
  22.5069598  14.3279815  38.5105022  23.3953431  14.8635082  39.6131653
   8.6504518  19.7685820  34.3415737   8.5150193  20.6137355  34.7700585
   9.1914331  19.9705097  33.5781671   2.1033916  17.2861258  34.9143662
   2.6158436  18.0804508  35.0649227   2.7556628  16.5887548  34.8477264
   3.9128800  20.4027014  36.9966416   4.0895429  21.3244979  36.8087399
   4.7085634  20.0885433  37.4260795  10.2772995  20.3909386  48.4716079
   9.8336849  19.6045765  48.1536984  10.9390208  20.5788537  47.8059970
   5.0360116  21.9205188  42.9976758   5.5867541  21.7922251  42.2253752
   4.1971592  22.2200077  42.6471651  12.3754233  20.6712186  46.4997481
  12.3572708  21.4921067  46.0077750  13.2974153  20.5466261  46.7247622
   8.8327287  18.1856316  47.3420989   9.3655624  17.4244604  47.1120297
   8.3041368  17.8929967  48.0845143  11.9647264  13.2824993  31.3787066
  11.4493888  14.0529597  31.6175453  11.6924573  12.6090129  32.0020127
  16.9381539  16.0357347  33.3140239  16.1610981  15.6968507  32.8695401
  17.6173020  16.0409970  32.6395204  11.7533568  11.1552085  33.2046847
  11.4483703  11.4698234  34.0556990  12.7064010  11.2333505  33.2474180
  10.1979999  17.3142308  34.8539801   9.6701361  16.5795068  34.5413038
   9.6967502  18.0916984  34.6079769  15.1772845  15.5091329  39.9706847
  14.5196520  16.1990590  40.0586976  15.9813245  15.8987760  40.3140834
  13.9878304  13.8635701  38.0210789  14.5010186  14.4965693  38.5232499
  14.6379528  13.2636897  37.6554149  11.2500678  23.8420026  30.7771460
  10.5762377  24.1451722  31.3856418  11.6366500  24.6449106  30.4276917
  10.4659135  11.3385157  40.2669130   9.5481696  11.5600104  40.1090818
  10.8819279  11.4131467  39.4080837  11.2494183  12.7376572  35.3971810
  11.9966002  13.2497970  35.0878932  11.5185772  12.4160625  36.2576203
   9.5220833  15.2335113  32.3798764   8.6132052  14.9494146  32.4771234
   9.5515917  15.6534192  31.5202071  14.7540100  18.8441703  36.1489932
  14.3002428  18.0032613  36.2055122  14.1234067  19.4803101  36.4864712
  13.6973020   9.7733689  37.3790599  12.9595777   9.2611075  37.7100842
  13.9499794   9.3334070  36.5673876  13.1973040  20.6818199  37.0839750
  13.4896014  21.2423256  36.3652115  13.7071660  20.9746760  37.8392909
   8.0705727  12.8463734  38.4808560   8.1254337  11.8937570  38.4051036
   7.2596929  13.0023173  38.9649858   9.2196921  16.7743857  29.7186843
   8.7816351  16.0579716  29.2592480   9.9607362  17.0019972  29.1571934
   8.1606665  21.4598550  38.1733203   8.1182844  21.6859397  37.2441735
   9.0769364  21.2261925  38.3219004  11.6072299  11.9282618  45.0713832
  11.9621686  12.1554091  45.9308298  12.2544430  12.2600995  44.4491088
  17.3370036  15.0501054  35.7763161  17.1987934  15.2402650  34.8484351
  16.9806254  15.8120437  36.2331212  17.3639415  17.1177581  40.7874433
  17.7975922  17.0252870  41.6357487  18.0770996  17.0935081  40.1494449
   6.2772466  18.3361579  37.9695166   7.0713064  17.8411900  37.7677741
   5.5664158  17.8079443  37.6062871  11.0967310  20.7179675  42.3207533
  11.1504332  21.2870611  43.0885249  10.2282092  20.8881560  41.9561571
  18.2254965  17.1601282  43.3207318  18.4190855  18.0647092  43.5666593
  18.1255583  16.7008701  44.1545903  13.2870073  17.3108024  48.8948199
  13.1355580  17.0818576  47.9778283  13.2774753  18.2678626  48.9079544
  10.0555410  14.8839937  43.8794465  10.9847470  15.0351097  43.7063433
   9.6346440  14.9723958  43.0243112   8.8543742  18.9090601  41.6493003
   8.7154827  18.5409386  42.5218941   8.0658338  19.4238241  41.4776961
   9.4491894  24.0099698  32.9918539   9.6243649  23.5387741  33.8064162
   8.7624682  24.6365464  33.2199800  10.4048957  18.2872204  39.0381841
  10.0698789  18.2472974  39.9339491   9.9052902  17.6216920  38.5652251
  13.3408148  15.6328239  29.3118900  12.7237319  14.9075067  29.2151953
  12.8724637  16.3937599  28.9685975   7.0075501  13.4059794  44.0518101
   7.7175120  12.7652986  44.0104720   6.9644810  13.6572688  44.9744282
  14.9962280  20.3427147  46.9724681  14.9374826  19.6586367  46.3055264
  15.3981799  21.0846137  46.5205307   4.0152979  27.1589061  39.7658400
   4.2549577  27.7907585  40.4437418   3.1722175  26.8077101  40.0523759
  14.9979687  18.3066731  45.2038660  14.1106466  17.9692653  45.3265059
  15.5678238  17.5749762  45.4407426   8.5280841  22.9668183  42.1699904
   8.4551012  23.7723155  42.6819208   8.0858234  23.1660149  41.3447925
   8.3170620  22.2039953  35.6802725   7.5338142  22.7461633  35.7740950
   9.0163366  22.7213933  36.0796966  19.4797028  13.7174948  39.9655222
  19.4686904  14.5999664  39.5949155  18.6114407  13.3646499  39.7709759
  10.9879524  22.8655017  44.3258062  11.7007497  23.5002482  44.2533964
  10.4969553  22.9618883  43.5098064  12.7097051  16.7706270  35.8975354
  11.7753330  16.8907732  35.7280058  12.8873720  15.8678737  35.6335364
  16.0969603  12.6123589  36.4325388  16.5630055  13.4451581  36.3585691
  16.5477103  12.1468571  37.1370647   6.0391438  20.6149461  45.1463633
   6.7400897  21.2485944  45.2993027   5.5686553  20.9564192  44.3859272
  14.1645834  18.9567410  33.4311540  14.4405678  18.8424005  34.3405414
  13.2950332  18.5584895  33.3923713  13.8392724  13.1694068  42.9716183
  13.1864174  13.4169976  42.3168636  14.2173104  12.3558206  42.6378661
  10.7999898  23.2053761  37.0744354  10.9822292  22.3875417  37.5372106
  11.6232884  23.4221454  36.6369244  11.1342063  22.1321946  34.3359402
  11.6629830  21.6214401  33.7229564  11.3970283  21.8164477  35.2004935
   9.8880297  13.9113879  49.4582220   9.2120934  13.8108008  50.1284596
  10.7107931  13.7553093  49.9218218   1.6359156  20.1485816  42.0794736
   2.2212593  19.4029504  42.2122640   1.4383994  20.4589772  42.9631400
   4.4897811  23.1837063  37.0957178   3.8208186  23.6683191  36.6121218
   4.3510681  23.4306284  38.0100557   8.6303080  25.2180807  43.6939836
   9.1821388  25.3812428  44.4588922   8.9709273  25.8085244  43.0219861
  13.4813954  20.0442064  49.5488491  14.0253858  20.6572022  49.0543446
  12.9000799  20.6021643  50.0655504  11.7671467  23.1662782  40.6803519
  11.6422606  22.3652522  40.1714464  12.4250558  23.6608976  40.1917489
  13.8306375  20.9671802  42.3083069  12.8836711  20.8477153  42.2361395
  14.1789148  20.0794300  42.3909330  10.8352809  20.7624518  38.5087421
  10.6877771  19.8341226  38.6894991  11.6606302  20.7844609  38.0244496
  14.4386931  21.5853077  39.5952294  15.3633478  21.3795939  39.4576745
  14.2702234  21.3369478  40.5041635  14.2282247  22.1038745  34.9514385
  14.4019124  21.5385167  34.1988238  14.7211138  22.9039640  34.7693875
  20.0821638  14.8675168  36.5704685  20.5252784  14.1182493  36.1723808
  19.2048148  14.8585304  36.1878417  15.2157419  21.4205509  32.0511283
  15.9108324  22.0412202  32.2698598  15.5580569  20.5700860  32.3263661
  17.1148842  18.8705215  33.5798614  17.6400166  19.2092487  32.8547934
  17.0271195  17.9352230  33.3961749   8.7768891  22.7839288  45.7088491
   9.0856017  22.5388435  46.5811190   9.5744373  22.9885927  45.2207361
   8.7989503  24.9377198  37.9393867   8.3594493  24.4453577  38.6326724
   9.5497620  24.3950165  37.6985943   1.2781842  21.1288739  37.9418495
   2.1039862  20.8292511  37.5617139   0.9275894  20.3596361  38.3908284
   6.2463375  20.4815207  40.0116169   5.6243385  19.8185912  39.7118397
   6.9168242  20.5076339  39.3289817  16.8042748  19.5038118  48.8849812
  16.0138292  19.4862257  48.3454312  16.5676103  20.0426412  49.6398849
  16.9240623  16.3530585  46.1982541  16.9738628  16.1880592  47.1398063
  16.8154547  15.4857844  45.8080421   5.8076882  19.0319130  33.4874630
   5.9565003  19.7154595  32.8341302   6.6143326  19.0124220  34.0024085
  14.2144386  12.3361513  47.5141847  15.1154249  12.1967977  47.2225845
  14.2892360  12.5015967  48.4540025  19.6254503  16.3380406  38.9627132
  20.4601394  16.7770210  39.1264693  19.7613631  15.8619059  38.1435378
  16.6746009  13.8960141  44.9104620  17.1500130  14.0887787  44.1023472
  15.7511574  13.9519327  44.6648004   3.5629515  15.0584308  34.4935699
   3.3175557  14.1546638  34.6915909   3.7325430  15.0601458  33.5515177
   9.3072288  21.5267261  30.9586377   8.7346255  22.1457448  30.5056849
   9.8805081  22.0766622  31.4926299  15.3747678  10.7725901  43.1432926
  16.3265100  10.8723998  43.1645150  15.2051128   9.9804169  43.6531010
  13.3962057   7.8581484  43.3292327  12.8011989   8.1386497  42.6338815
  13.1111754   8.3475385  44.1009068  12.5269547  21.8104411  32.0894959
  13.4600221  21.7449973  32.2927835  12.4392760  22.6460678  31.6309492
  15.1557564  21.1270281  29.0498907  15.0771196  20.7930145  29.9434665
  15.9767231  21.6192049  29.0490379  17.8535755  13.9932020  42.2575225
  17.8212075  13.0548021  42.4434909  18.4636379  14.0716057  41.5241050
  18.0030244  10.7843064  42.3033509  17.4869292  10.0001521  42.1163438
  18.8870192  10.4561781  42.4680028  23.6712305  15.0548027  41.3981262
  24.4015694  14.7933315  41.9588966  23.0619251  14.3176749  41.4383330
  21.7527602  13.1955890  41.9955713  21.0260766  13.0611855  41.3872205
  21.3374889  13.5032719  42.8012432   9.5757779  16.9145820  49.7603086
  10.4960788  17.0924419  49.9543133   9.5407362  15.9701865  49.6082786
   2.5719851  14.8246854  42.4025868   2.7905861  15.7563962  42.4213901
   2.9845625  14.4654829  43.1880671   7.3078987  13.8277199  50.6093678
   6.8246068  14.6277559  50.8157567   7.3939926  13.8385144  49.6561122
   3.2352324  17.7181734  42.6462112   4.1895578  17.6865676  42.5792044
   3.0364848  17.2572357  43.4612338   3.8251706  16.2882850  45.2132910
   4.6444595  16.7826928  45.2367747   4.0988514  15.3714818  45.1850477
  13.5818302   8.6793602  34.5760865  12.6944157   8.9643253  34.3581060
  13.9972292   8.5187365  33.7288142  16.9332839   8.7040123  38.2915204
  17.7093229   9.1936575  38.5639821  16.2080973   9.1298177  38.7487074
  19.3705397   9.4167742  39.3489145  19.9649888   9.1763478  38.6382453
  19.4431981   8.6974873  39.9762681   1.5902553  23.2601353  39.6632310
   1.4557021  22.5001754  39.0970308   1.1734615  23.9842253  39.1961099
  12.7261516  18.4438277  28.6708885  13.4297366  18.6488279  29.2866541
  12.0024165  19.0115038  28.9357969  13.5559326  14.1948138  34.7911155
  13.4994528  14.6516689  33.9518788  14.1087669  13.4338822  34.6133998
  17.3664132   9.9837870  35.6161275  17.1101066   9.5834505  36.4469483
  16.7417000  10.6981664  35.4911414  21.6776470  12.7233943  38.1232566
  21.1176028  12.7927132  38.8964128  21.0719973  12.5474928  37.4032063
   4.7471679  24.1570670  39.8750753   4.6304063  25.1016103  39.7729443
   3.9264125  23.8544232  40.2636552  14.6348213  18.8820806  30.7207345
  15.4693817  18.4502004  30.5384820  14.4732556  18.7102819  31.6484240
  14.2894105  15.3852919  32.0863685  14.2342909  15.2197191  31.1452129
  13.6640161  16.0928952  32.2425874  11.6040013  17.6901831  51.4117247
  12.4731172  17.8642483  51.0503882  11.1246764  18.5096248  51.2892977
   5.7726193  24.8098932  43.0906681   6.6753440  24.8422542  43.4073176
   5.5463563  23.8799383  43.1053017   7.5279795  23.5629919  39.7516760
   6.5775426  23.5631780  39.6381132   7.8312281  22.8162653  39.2352794
  23.2632488  29.3990457  40.8162522  23.9010898  29.2797204  40.1125862
  23.1453331  30.3471301  40.8750474  20.0722195  29.3517885  40.7524047
  19.7340706  29.2358950  39.8644582  20.9411963  28.9509050  40.7325053
  15.9309010  31.2053361  36.7420938  15.3673876  31.1143298  35.9737225
  15.8161405  30.3853266  37.2223430  13.4773442  32.7004553  39.5805158
  14.2694734  32.3595378  39.1651457  13.7170092  32.8099528  40.5007311
  21.5108569  34.8724329  32.0535403  20.8596549  35.4578410  31.6669416
  22.3052932  35.4030524  32.1130440  15.4364196  31.9613466  32.4522537
  16.2095072  31.4142453  32.3135413  15.7889595  32.8257716  32.6636998
  17.2749239  33.2889849  45.6589436  16.9839105  34.1935479  45.5436103
  17.9106223  33.3306376  46.3733506  18.2005446  30.6666697  42.2490796
  18.7969018  30.4422719  41.5347759  18.2580417  29.9251443  42.8516244
  17.7730474  28.1206132  30.0840987  18.0255995  27.5987654  29.3224450
  16.8355033  27.9572278  30.1867670  22.8173757  27.1241911  37.8915730
  23.6036846  26.7061334  37.5406147  23.0812461  28.0288003  38.0597378
  22.9883834  32.5614761  32.5904387  22.3529667  32.6349388  33.3025291
  22.6581241  33.1508360  31.9123466  28.2182184  27.0617144  38.7948709
  28.9507356  26.4916361  39.0286538  27.4621540  26.6738744  39.2355214
  17.4926763  30.0234238  32.2865362  17.3763021  29.3479142  32.9546446
  17.6029023  29.5366612  31.4697515  19.8358304  29.4844385  35.9912051
  19.4716511  28.9575006  36.7024972  20.6925420  29.0942854  35.8178536
  25.7407604  20.7738718  43.2543317  25.4090929  21.6434129  43.0304532
  25.1453218  20.4575002  43.9337348  19.4763791  24.5134285  30.9873400
  19.6438193  25.3814522  31.3543871  19.2860960  24.6761567  30.0634689
  22.2339124  32.9751264  42.6539230  21.9339847  33.8776303  42.5455037
  21.8890183  32.7083447  43.5060383  15.6851605  29.4265061  38.6875934
  14.7602102  29.2941275  38.8953626  15.9336019  30.2059280  39.1845877
  25.6336268  25.4933804  40.3336667  24.7253145  25.4249213  40.0395428
  25.5823863  25.9705749  41.1618493  19.4553012  26.9691943  31.9720066
  19.3352637  27.4148993  32.8105547  18.7605600  27.3177260  31.4133604
  13.0460416  29.0698334  39.5219723  13.1752798  29.3232813  40.4359135
  12.3657868  29.6626042  39.2024378  17.2159904  39.7395584  35.6210198
  17.1383933  40.6903409  35.6998678  16.6121547  39.3941457  36.2785124
  27.4997914  23.6950243  42.1114541  26.8572294  23.9882776  41.4654336
  26.9952843  23.5803163  42.9167738  25.1538078  27.4413416  32.8000400
  26.0655934  27.6740803  32.6248098  24.6447725  28.0250460  32.2375479
  19.7909915  26.8010650  43.8095250  20.6371111  27.2250064  43.9529899
  19.7308553  26.1444275  44.5033813  23.7607660  32.4239234  40.1913982
  23.1316523  32.5884948  39.4890050  23.3733322  32.8380844  40.9624946
  27.6396892  33.3593672  37.5458346  26.9547930  33.7392573  36.9955379
  27.7240741  33.9688999  38.2790293  22.9409361  24.4615019  45.4676424
  22.6970293  25.2157079  44.9310699  23.2169291  24.8400366  46.3023671
  24.8947824  31.0053631  44.1453689  25.1064719  31.6485391  43.4688070
  24.8477572  30.1715948  43.6775619  22.4974053  23.6171452  41.0490261
  21.6358532  23.9152705  41.3406999  22.5236487  23.8341851  40.1171294
  19.3135622  32.1613642  37.4564067  19.7773967  32.4401345  36.6668689
  19.0492420  31.2597087  37.2737158  16.2059703  31.7085124  40.3943830
  16.7761060  32.1372392  39.7561315  16.7967815  31.4267709  41.0928016
  18.2504508  28.2836795  34.2653632  18.9528551  28.7357838  34.7327558
  17.9185136  27.6420614  34.8933525  16.6984870  26.8748551  48.6404841
  16.0683530  27.5564832  48.8740238  16.5920957  26.7631633  47.6957980
  11.9929842  26.5420347  39.5670766  11.2028896  26.7977876  39.0910876
  12.4841089  27.3568685  39.6722806  26.0093652  33.8825587  42.3176046
  26.8311095  33.4805774  42.0358728  26.0056054  33.7793821  43.2692162
  13.9444587  26.9064927  36.5254242  13.1475751  27.0183621  37.0437738
  13.7170180  27.2451579  35.6595133  19.7750255  33.4309630  44.4736757
  19.8394687  33.8930037  45.3094929  19.0661179  32.8006995  44.6019067
  10.2767545  26.7950838  41.9985756  10.5275583  27.6797848  42.2643332
  10.8127093  26.6155439  41.2260848  34.0999645  30.2264335  38.6661018
  33.3463353  29.6571733  38.5105022  34.2347186  30.1927000  39.6131653
  19.4898273  35.0977737  34.3415737  19.3543947  35.9429273  34.7700585
  20.0308085  35.2997015  33.5781671  15.9765612  21.1769317  51.0030093
  15.5832558  20.6235516  51.6777737  16.7931753  21.4879896  51.3936610
  12.9427670  32.6153175  34.9143662  13.4552191  33.4096426  35.0649227
  13.5950383  31.9179466  34.8477264  14.7522555  35.7318932  36.9966416
  14.9289183  36.6536896  36.8087399  15.5479388  35.4177351  37.4260795
  14.0374911  27.7783564  46.8728579  13.9228426  26.8768821  47.1735678
  13.1819429  28.0247260  46.5213395  15.8753870  37.2497105  42.9976758
  16.4261295  37.1214169  42.2253752  15.0365346  37.5491994  42.6471651
  23.2147987  36.0004104  46.4997481  23.1966462  36.8212985  46.0077750
  24.1367907  35.8758179  46.7247622  22.8390736  18.6208299  42.8714631
  22.4955006  19.5109941  42.7953741  23.2069699  18.4309957  42.0084216
  10.9076587  30.9441830  35.6903233  11.7451809  31.3538838  35.4736941
  11.0854854  30.0041272  35.6603427  22.8041019  28.6116910  31.3787066
  22.2887642  29.3821515  31.6175453  22.5318327  27.9382046  32.0020127
  20.3888130  23.4566611  36.4372304  19.5329726  23.0673462  36.2577943
  20.8015082  23.5358572  35.5772090  21.9187277  20.9912954  40.8363864
  21.4152072  20.9543090  40.0231669  22.2117883  21.9005697  40.8960521
  18.1630162  21.0751684  39.8430046  19.0283159  20.8794493  39.4835935
  18.2307671  20.8462036  40.7699403  27.7775293  31.3649265  33.3140239
  27.0004736  31.0260424  32.8695401  28.4566774  31.3701888  32.6395204
  22.5927322  26.4844002  33.2046847  22.2877458  26.7990152  34.0556990
  23.5457764  26.5625422  33.2474180  21.0373754  32.6434226  34.8539801
  20.5095115  31.9086985  34.5413038  20.5361257  33.4208902  34.6079769
  26.0166600  30.8383246  39.9706847  25.3590274  31.5282508  40.0586976
  26.8206999  31.2279678  40.3140834  15.7692482  23.3053892  37.2146413
  16.3436233  23.0829074  36.4819606  16.3563464  23.3742587  37.9675014
  24.8272059  29.1927619  38.0210789  25.3403940  29.8257611  38.5232499
  25.4773283  28.5928814  37.6554149  16.0962069  25.3358353  31.2342298
  15.2599381  25.6733040  31.5551573  15.9566838  25.2007333  30.2969435
  18.0715149  20.1795141  35.9421482  17.4179562  19.8644158  35.3178097
  18.0295623  19.5570881  36.6681305  19.1826354  30.4614436  27.8574774
  18.2753416  30.2303689  28.0565923  19.6797386  29.6652055  28.0448756
  22.0894433  39.1711943  30.7771460  21.4156132  39.4743640  31.3856418
  22.4760255  39.9741024  30.4276917  21.3052890  26.6677074  40.2669130
  20.3875451  26.8892021  40.1090818  21.7213033  26.7423385  39.4080837
  22.0887937  28.0668490  35.3971810  22.8359756  28.5789887  35.0878932
  22.3579527  27.7452543  36.2576203  20.3614588  30.5627031  32.3798764
  19.4525807  30.2786064  32.4771234  20.3909671  30.9826109  31.5202071
  25.5933855  34.1733620  36.1489932  25.1396182  33.3324530  36.2055122
  24.9627822  34.8095019  36.4864712  24.5366775  25.1025606  37.3790599
  23.7989531  24.5902993  37.7100842  24.7893548  24.6625988  36.5673876
  24.0366794  36.0110117  37.0839750  24.3289769  36.5715174  36.3652115
  24.5465415  36.3038678  37.8392909  24.6378402  17.8801858  37.9732368
  24.9437279  17.0199222  37.6858284  25.3631007  18.4719479  37.7731362
  10.9302758  28.2832545  36.3613966  10.7327158  27.6901906  35.6365033
  10.3749422  27.9784755  37.0789905  18.9099482  28.1755651  38.4808560
  18.9648091  27.2229488  38.4051036  18.0990684  28.3315091  38.9649858
  20.0590675  32.1035775  29.7186843  19.6210105  31.3871633  29.2592480
  20.8001116  32.3311889  29.1571934  16.8491841  26.7932711  36.2398938
  16.0359707  27.0926882  36.6464131  17.3450836  26.3988400  36.9573421
  19.0000419  36.7890468  38.1733203  18.9576598  37.0151314  37.2441735
  19.9163118  36.5553843  38.3219004  22.4466053  27.2574536  45.0713832
  22.8015441  27.4846009  45.9308298  23.0938184  27.5892912  44.4491088
  28.1763790  30.3792972  35.7763161  28.0381689  30.5694568  34.8484351
  27.8200009  31.1412354  36.2331212  16.3405916  24.3651067  41.8560173
  16.9805296  24.2239826  41.1583137  15.5083447  24.0785580  41.4798775
  28.2033170  32.4469499  40.7874433  28.6369676  32.3544788  41.6357487
  28.9164750  32.4226999  40.1494449  17.1166220  33.6653497  37.9695166
  17.9106819  33.1703817  37.7677741  16.4057913  33.1371360  37.6062871
  21.9361065  36.0471593  42.3207533  21.9898087  36.6162529  43.0885249
  21.0675846  36.2173478  41.9561571  13.4248984  27.8096579  34.0454918
  12.4946572  27.7481034  34.2624881  13.5206456  27.2872532  33.2491560
  13.3434533  24.3351392  36.6333160  13.6041350  25.2496725  36.5242321
  14.1651705  23.8675834  36.7829773  14.8159458  25.7489149  43.8031985
  15.4882511  25.5406511  43.1544634  13.9889245  25.5511235  43.3637217
  29.0648719  32.4893199  43.3207318  29.2584609  33.3939010  43.5666593
  28.9649337  32.0300618  44.1545903  20.7185030  22.3751090  45.8197646
  20.0712945  23.0741039  45.7262122  21.4886045  22.8087234  46.1873894
  20.8949164  30.2131855  43.8794465  21.8241224  30.3643014  43.7063433
  20.4740194  30.3015876  43.0243112  19.6937496  34.2382519  41.6493003
  19.5548582  33.8701304  42.5218941  18.9052092  34.7530159  41.4776961
  20.2885648  39.3391616  32.9918539  20.4637404  38.8679659  33.8064162
  19.6018436  39.9657382  33.2199800  21.2442711  33.6164122  39.0381841
  20.9092544  33.5764892  39.9339491  20.7446657  32.9508838  38.5652251
  15.2186955  29.0231752  44.5634422  15.0806753  28.2911991  45.1645961
  16.1291879  28.9340652  44.2818610  24.1801903  30.9620156  29.3118900
  23.5631074  30.2366984  29.2151953  23.7118391  31.7229516  28.9685975
  17.8469256  28.7351711  44.0518101  18.5568874  28.0944903  44.0104720
  17.8038564  28.9864606  44.9744282  25.8356035  35.6719065  46.9724681
  25.7768581  34.9878285  46.3055264  26.2375553  36.4138055  46.5205307
  16.5598190  25.7216929  45.8713741  16.0235547  25.2707668  46.5235337
  15.9714898  25.8562838  45.1284205  14.8546733  42.4880978  39.7658400
  15.0943332  43.1199503  40.4437418  14.0115930  42.1369018  40.0523759
  15.9700449  25.1805581  28.4340205  15.0929915  25.0594381  28.0702451
  16.4458202  24.3891659  28.1819093  25.8373442  33.6358648  45.2038660
  24.9500221  33.2984570  45.3265059  26.4071993  32.9041680  45.4407426
   7.4902589  29.9682740  38.5281712   8.1773629  29.6544470  37.9402727
   7.3350718  30.8724105  38.2548963  12.2937311  24.8572937  42.9566735
  12.2095500  24.2498606  42.2217145  11.4720018  25.3481955  42.9576232
  19.3674595  38.2960101  42.1699904  19.2944767  39.1015072  42.6819208
  18.9251988  38.4952067  41.3447925  19.1564375  37.5331871  35.6802725
  18.3731897  38.0753551  35.7740950  19.8557120  38.0505851  36.0796966
  22.4661025  23.3426500  38.3236931  22.9629725  22.5896463  38.0038001
  21.6948007  23.3790817  37.7580140  30.3190782  29.0466866  39.9655222
  30.3080659  29.9291581  39.5949155  29.4508162  28.6938417  39.7709759
  21.8273279  38.1946935  44.3258062  22.5401251  38.8294400  44.2533964
  21.3363307  38.2910801  43.5098064  23.5490806  32.0998188  35.8975354
  22.6147084  32.2199650  35.7280058  23.7267474  31.1970654  35.6335364
  19.0495994  25.4843883  38.0508615  18.6793781  24.9314924  38.7389521
  19.5455086  24.8802017  37.4983615  26.9363357  27.9415507  36.4325388
  27.4023809  28.7743498  36.3585691  27.3870858  27.4760488  37.1370647
  16.8785192  35.9441378  45.1463633  17.5794652  36.5777861  45.2993027
  16.4080307  36.2856110  44.3859272  25.0039588  34.2859328  33.4311540
  25.2799432  34.1715923  34.3405414  24.1344087  33.8876813  33.3923713
  24.9080020  20.3096094  40.4716289  23.9943100  20.5400321  40.6398496
  25.3373121  20.3934538  41.3230322  24.6786478  28.4985986  42.9716183
  24.0257929  28.7461893  42.3168636  25.0566858  27.6850124  42.6378661
  21.6393652  38.5345679  37.0744354  21.8216047  37.7167335  37.5372106
  22.4626638  38.7513371  36.6369244  21.9735818  37.4613864  34.3359402
  22.5023584  36.9506319  33.7229564  22.2364037  37.1456394  35.2004935
  12.4752910  35.4777733  42.0794736  13.0606347  34.7321421  42.2122640
  12.2777749  35.7881690  42.9631400  15.3291566  38.5128981  37.0957178
  14.6601941  38.9975108  36.6121218  15.1904435  38.7598201  38.0100557
   7.0670565  28.0483334  40.7999179   7.1054665  27.5146924  41.5936297
   6.5610858  27.5218539  40.1810156  19.4696834  40.5472724  43.6939836
  20.0215142  40.7104346  44.4588922  19.8103028  41.1377162  43.0219861
  14.4461327  22.8947874  44.2961721  14.5102654  23.7562705  43.8839119
  14.3828448  22.2821876  43.5634080  13.9213600  24.9671007  47.9434755
  14.5485639  24.5848084  48.5572280  13.0641519  24.7485209  48.3090448
  10.6979143  26.7747436  33.8753110  10.9932584  25.8658114  33.8220164
   9.7967178  26.7535175  33.5534113  22.6065221  38.4954700  40.6803519
  22.4816361  37.6944440  40.1714464  23.2644313  38.9900893  40.1917489
  14.2273390  24.8503432  39.8580659  13.5059975  25.4639400  39.7188132
  15.0166645  25.3861197  39.7797305  24.6700130  36.2963720  42.3083069
  23.7230465  36.1769071  42.2361395  25.0182903  35.4086218  42.3909330
  17.0299703  22.1857859  46.1321311  17.5534105  22.4320155  46.8947620
  16.8112036  23.0177894  45.7124448  12.4266984  24.4561533  33.9992435
  12.0979690  23.5758912  33.8167541  12.7806355  24.4009202  34.8868825
  21.6746563  36.0916436  38.5087421  21.5271526  35.1633144  38.6894991
  22.5000057  36.1136527  38.0244496  15.5408807  24.7434503  34.3667913
  15.8804880  25.2720424  33.6446521  15.9880928  25.0814909  35.1426480
  25.2780685  36.9144995  39.5952294  26.2027232  36.7087856  39.4576745
  25.1095988  36.6661396  40.5041635  18.2352248  23.1271554  43.8170981
  17.8949069  22.3279367  44.2191661  17.5291255  23.4273265  43.2447814
  18.8868720  20.2120866  42.2698304  19.7094789  19.7381345  42.1477194
  19.1306784  20.9911350  42.7696990  17.5276955  23.2409125  32.5661206
  18.2485317  23.6190378  32.0624923  16.9042259  23.9598002  32.6696184
  21.6708077  23.9454274  33.5019538  21.8871692  24.8278912  33.2008366
  21.1902145  23.5540487  32.7725180  16.4107299  26.9039987  40.0790283
  16.2651880  27.2180290  40.9714564  15.9332502  27.5224887  39.5261181
  18.2703682  23.8942535  40.1271172  18.2565250  22.9983628  39.7903470
  18.9876110  23.9013199  40.7609458  20.1229812  24.3279875  42.1724300
  19.8647590  25.2496946  42.1708630  19.5914853  23.9310310  42.8624764
  25.0676001  37.4330662  34.9514385  25.2412879  36.8677085  34.1988238
  25.5604892  38.2331557  34.7693875  10.8852961  29.4445331  43.0177944
  10.3406429  30.2205139  43.1498218  11.7632311  29.7916136  42.8597065
  17.6740578  22.7756915  35.3958742  17.7956489  21.8473561  35.5949630
  17.3842620  22.7895601  34.4837058  20.5431768  20.4611826  38.5325462
  20.5653465  20.5251159  37.5777442  20.9599827  19.6216334  38.7265968
  30.9215392  30.1967085  36.5704685  31.3646538  29.4474410  36.1723808
  30.0441903  30.1877222  36.1878417  26.0551174  36.7497427  32.0511283
  26.7502078  37.3704119  32.2698598  26.3974324  35.8992778  32.3263661
  11.6718983  28.5715228  45.9108101  10.9300719  28.7197863  46.4972731
  11.3511727  28.8323493  45.0474850  27.9542597  34.1997132  33.5798614
  28.4793921  34.5384405  32.8547934  27.8664949  33.2644148  33.3961749
  19.6162646  38.1131206  45.7088491  19.9249772  37.8680353  46.5811190
  20.4138128  38.3177844  45.2207361  19.6383258  40.2669116  37.9393867
  19.1988248  39.7745494  38.6326724  20.3891375  39.7242083  37.6985943
  12.1175597  36.4580656  37.9418495  12.9433616  36.1584428  37.5617139
  11.7669649  35.6888279  38.3908284  17.0857130  35.8107125  40.0116169
  16.4637139  35.1477830  39.7118397  17.7561997  35.8368256  39.3289817
  10.3184202  34.3766983  38.9007429   9.4816110  33.9489157  38.7191430
  10.2907847  34.5699426  39.8378220  17.1581657  24.2888913  49.6048675
  17.2069813  25.1651035  49.2226445  17.7004171  23.7466306  49.0320318
  27.7634378  31.6822502  46.1982541  27.8132383  31.5172510  47.1398063
  27.6548301  30.8149761  45.8080421  16.6470637  34.3611048  33.4874630
  16.7958757  35.0446512  32.8341302  17.4537080  34.3416138  34.0024085
  30.4648257  31.6672324  38.9627132  31.2995148  32.1062128  39.1264693
  30.6007386  31.1910977  38.1435378  27.5139763  29.2252058  44.9104620
  27.9893885  29.4179705  44.1023472  26.5905328  29.2811244  44.6648004
  14.4023270  30.3876226  34.4935699  14.1569312  29.4838556  34.6915909
  14.5719184  30.3893376  33.5515177  22.0919979  21.2599902  43.8760454
  22.6101923  21.9960929  43.5506943  21.7375112  21.5663895  44.7107213
  13.6718917  26.1204583  31.9921860  12.9788162  26.1948938  31.3361896
  13.4270669  25.3564927  32.5143377  22.3432574  17.6800184  39.3961351
  22.6234327  17.0123374  40.0221777  23.1283181  17.8729280  38.8836015
  20.1466042  36.8559178  30.9586377  19.5740009  37.4749366  30.5056849
  20.7198836  37.4058540  31.4926299  26.2141432  26.1017818  43.1432926
  27.1658855  26.2015916  43.1645150  26.0444882  25.3096087  43.6531010
  24.2355811  23.1873402  43.3292327  23.6405744  23.4678414  42.6338815
  23.9505508  23.6767303  44.1009068  23.3663302  37.1396329  32.0894959
  24.2993975  37.0741890  32.2927835  23.2786515  37.9752595  31.6309492
  25.9951319  36.4562199  29.0498907  25.9164950  36.1222062  29.9434665
  26.8160985  36.9483967  29.0490379  28.6929510  29.3223938  42.2575225
  28.6605830  28.3839939  42.4434909  29.3030133  29.4007975  41.5241050
  20.5312841  28.1919991  28.3002430  21.4771945  28.0626199  28.3690848
  20.1527086  27.4534653  28.7771858  28.8423998  26.1134982  42.3033509
  28.3263047  25.3293438  42.1163438  29.7263947  25.7853698  42.4680028
  26.5034725  19.8575997  38.2629321  26.3059546  19.5491085  39.1472653
  27.1134431  20.5837636  38.3927251  34.5106060  30.3839945  41.3981262
  35.2409448  30.1225233  41.9588966  33.9013005  29.6468667  41.4383330
  32.5921357  28.5247808  41.9955713  31.8654520  28.3903773  41.3872205
  32.1768644  28.8324636  42.8012432  18.7155758  26.1169968  28.2357315
  17.8087213  25.8203080  28.3120028  18.9931739  25.8199786  27.3691601
   9.6333698  27.4376331  38.6856361   9.3136483  26.5841639  38.3930735
   9.0867126  27.6524909  39.4414328  13.4113606  30.1538772  42.4025868
  13.6299616  31.0855880  42.4213901  13.8239380  29.7946746  43.1880671
  20.3317824  20.6606857  34.3901556  19.5218552  20.3153942  34.7656802
  21.0202240  20.3514401  34.9789168  22.2608372  19.7384904  36.0125853
  22.8139410  20.1580357  36.6715876  22.4978458  18.8120652  36.0548809
  17.4854542  22.9756903  28.3769294  18.3473706  23.3011801  28.6365111
  17.6704887  22.1888399  27.8642360   9.5021958  31.0579242  40.6549483
   8.8085430  30.6433195  40.1419437  10.2494949  31.0999779  40.0582902
  25.6387179  21.8485429  35.5204517  25.0585848  22.5070233  35.1382569
  25.3723112  21.0262774  35.1091934  24.0890745  21.2490487  37.7225837
  24.5890524  21.3607021  36.9140156  24.7326353  20.9451540  38.3626646
  11.4158701  30.9897496  38.5315498  11.3929389  31.0885183  37.5797381
  11.7259337  31.8362647  38.8532664  14.0746079  33.0473651  42.6462112
  15.0289332  33.0157594  42.5792044  13.8758602  32.5864275  43.4612338
  14.6645461  31.6174767  45.2132910  15.4838350  32.1118846  45.2367747
  14.9382268  30.7006735  45.1850477  24.4212057  24.0085520  34.5760865
  23.5337912  24.2935170  34.3581060  24.8366046  23.8479283  33.7288142
  27.7726593  24.0332041  38.2915204  28.5486983  24.5228493  38.5639821
  27.0474727  24.4590095  38.7487074  30.2099152  24.7459660  39.3489145
  30.8043642  24.5055396  38.6382453  30.2825735  24.0266790  39.9762681
  12.4296307  38.5893271  39.6632310  12.2950775  37.8293672  39.0970308
  12.0128370  39.3134171  39.1961099  23.5655270  33.7730194  28.6708885
  24.2691121  33.9780197  29.2866541  22.8417919  34.3406956  28.9357969
  24.3953081  29.5240056  34.7911155  24.3388282  29.9808607  33.9518788
  24.9481423  28.7630740  34.6133998  28.2057887  25.3129787  35.6161275
  27.9494821  24.9126423  36.4469483  27.5810755  26.0273581  35.4911414
  32.5170224  28.0525861  38.1232566  31.9569782  28.1219050  38.8964128
  31.9113728  27.8766845  37.4032063  15.5865433  39.4862588  39.8750753
  15.4697817  40.4308020  39.7729443  14.7657880  39.1836149  40.2636552
  25.4741968  34.2112723  30.7207345  26.3087572  33.7793922  30.5384820
  25.3126311  34.0394737  31.6484240  25.1287860  30.7144837  32.0863685
  25.0736664  30.5489108  31.1452129  24.5033915  31.4220870  32.2425874
   9.9180375  25.9512901  45.9125107  10.5639239  25.4411855  46.4012332
   9.7097526  26.6881583  46.4868532  18.4383985  20.2152946  31.6649003
  18.4262655  21.1594786  31.8217274  19.3307407  20.0323091  31.3708464
  16.6119947  40.1390850  43.0906681  17.5147194  40.1714460  43.4073176
  16.3857317  39.2091301  43.1053017  18.3673549  38.8921836  39.7516760
  17.4169180  38.8923698  39.6381132  18.6706036  38.1454571  39.2352794
  22.2536105  16.8095722  35.9194940  21.4868501  16.2554209  36.0651622
  22.6646810  16.8817591  36.7809091  14.2577866  23.0980518  50.0100121
  15.1209328  22.7417323  50.2203446  13.6843277  22.7594413  50.6975525
  34.1026243  44.7282375  40.8162522  34.7404653  44.6089122  40.1125862
  33.9847086  45.6763219  40.8750474  30.9115949  44.6809803  40.7524047
  30.5734461  44.5650867  39.8644582  31.7805717  44.2800968  40.7325053
  26.7702765  46.5345279  36.7420938  26.2067630  46.4435216  35.9737225
  26.6555160  45.7145184  37.2223430  24.3167197  48.0296471  39.5805158
  25.1088489  47.6887295  39.1651457  24.5563847  48.1391446  40.5007311
  32.3502324  50.2016247  32.0535403  31.6990303  50.7870327  31.6669416
  33.1446686  50.7322442  32.1130440  26.2757951  47.2905384  32.4522537
  27.0488827  46.7434371  32.3135413  26.6283350  48.1549633  32.6636998
  28.1142993  48.6181766  45.6589436  27.8232859  49.5227397  45.5436103
  28.7499978  48.6598294  46.3733506  29.0399200  45.9958615  42.2490796
  29.6362772  45.7714637  41.5347759  29.0974172  45.2543360  42.8516244
  28.6124229  43.4498050  30.0840987  28.8649749  42.9279571  29.3224450
  27.6748788  43.2864196  30.1867670  33.6567511  42.4533828  37.8915730
  34.4430601  42.0353252  37.5406147  33.9206216  43.3579921  38.0597378
  33.8277589  47.8906679  32.5904387  33.1923422  47.9641305  33.3025291
  33.4974995  48.4800278  31.9123466  39.0575939  42.3909062  38.7948709
  39.7901110  41.8208278  39.0286538  38.3015294  42.0030662  39.2355214
  28.3320517  45.3526156  32.2865362  28.2156775  44.6771059  32.9546446
  28.4422777  44.8658530  31.4697515  30.6752058  44.8136303  35.9912051
  30.3110265  44.2866924  36.7024972  31.5319174  44.4234772  35.8178536
  36.5801359  36.1030636  43.2543317  36.2484684  36.9726047  43.0304532
  35.9846972  35.7866920  43.9337348  30.3157545  39.8426203  30.9873400
  30.4831948  40.7106439  31.3543871  30.1254714  40.0053485  30.0634689
  33.0732878  48.3043182  42.6539230  32.7733601  49.2068221  42.5455037
  32.7283938  48.0375365  43.5060383  26.5245360  44.7556979  38.6875934
  25.5995856  44.6233193  38.8953626  26.7729773  45.5351198  39.1845877
  36.4730022  40.8225722  40.3336667  35.5646900  40.7541130  40.0395428
  36.4217618  41.2997667  41.1618493  30.2946766  42.2983860  31.9720066
  30.1746391  42.7440911  32.8105547  29.5999354  42.6469178  31.4133604
  23.8854171  44.3990252  39.5219723  24.0146552  44.6524731  40.4359135
  23.2051622  44.9917960  39.2024378  28.0553658  55.0687502  35.6210198
  27.9777688  56.0195327  35.6998678  27.4515302  54.7233375  36.2785124
  38.3391669  39.0242160  42.1114541  37.6966049  39.3174693  41.4654336
  37.8346597  38.9095081  42.9167738  35.9931832  42.7705333  32.8000400
  36.9049688  43.0032720  32.6248098  35.4841479  43.3542378  32.2375479
  30.6303670  42.1302568  43.8095250  31.4764865  42.5541982  43.9529899
  30.5702308  41.4736192  44.5033813  34.6001415  47.7531152  40.1913982
  33.9710277  47.9176866  39.4890050  34.2127077  48.1672762  40.9624946
  38.4790646  48.6885590  37.5458346  37.7941685  49.0684491  36.9955379
  38.5634496  49.2980916  38.2790293  35.7341578  46.3345549  44.1453689
  35.9458473  46.9777309  43.4688070  35.6871326  45.5007865  43.6775619
  33.3367807  38.9463369  41.0490261  32.4752286  39.2444623  41.3406999
  33.3630242  39.1633768  40.1171294  30.1529376  47.4905560  37.4564067
  30.6167722  47.7693263  36.6668689  29.8886175  46.5889005  37.2737158
  27.0453457  47.0377042  40.3943830  27.6154815  47.4664310  39.7561315
  27.6361569  46.7559626  41.0928016  29.0898262  43.6128712  34.2653632
  29.7922306  44.0649756  34.7327558  28.7578891  42.9712531  34.8933525
  27.5378624  42.2040469  48.6404841  26.9077285  42.8856750  48.8740238
  27.4314712  42.0923551  47.6957980  22.8323596  41.8712265  39.5670766
  22.0422650  42.1269794  39.0910876  23.3234844  42.6860603  39.6722806
  36.8487406  49.2117504  42.3176046  37.6704850  48.8097692  42.0358728
  36.8449809  49.1085738  43.2692162  24.7838342  42.2356844  36.5254242
  23.9869505  42.3475539  37.0437738  24.5563934  42.5743497  35.6595133
  30.6144009  48.7601548  44.4736757  30.6788442  49.2221955  45.3094929
  29.9054933  48.1298912  44.6019067  21.1161299  42.1242756  41.9985756
  21.3669338  43.0089765  42.2643332  21.6520848  41.9447357  41.2260848
  44.9393399  45.5556253  38.6661018  44.1857107  44.9863651  38.5105022
  45.0740940  45.5218917  39.6131653  30.3292027  50.4269655  34.3415737
  30.1937702  51.2721191  34.7700585  30.8701840  50.6288933  33.5781671
  23.7821424  47.9445093  34.9143662  24.2945945  48.7388343  35.0649227
  24.4344137  47.2471384  34.8477264  25.5916309  51.0610849  36.9966416
  25.7682938  51.9828814  36.8087399  26.3873143  50.7469269  37.4260795
  24.8768666  43.1075481  46.8728579  24.7622181  42.2060738  47.1735678
  24.0213183  43.3539178  46.5213395  31.9560503  51.0493222  48.4716079
  31.5124358  50.2629600  48.1536984  32.6177717  51.2372372  47.8059970
  26.7147625  52.5789023  42.9976758  27.2655050  52.4506086  42.2253752
  25.8759101  52.8783912  42.6471651  34.0541742  51.3296021  46.4997481
  34.0360217  52.1504903  46.0077750  34.9761662  51.2050097  46.7247622
  30.5114796  48.8440151  47.3420989  31.0443133  48.0828439  47.1120297
  29.9828877  48.5513803  48.0845143  21.7470341  46.2733747  35.6903233
  22.5845563  46.6830756  35.4736941  21.9248609  45.3333190  35.6603427
  33.6434773  43.9408828  31.3787066  33.1281397  44.7113433  31.6175453
  33.3712082  43.2673964  32.0020127  31.2281884  38.7858529  36.4372304
  30.3723481  38.3965379  36.2577943  31.6408836  38.8650490  35.5772090
  32.7581031  36.3204872  40.8363864  32.2545827  36.2835007  40.0231669
  33.0511638  37.2297615  40.8960521  29.0023917  36.4043602  39.8430046
  29.8676914  36.2086410  39.4835935  29.0701426  36.1753954  40.7699403
  38.6169048  46.6941183  33.3140239  37.8398490  46.3552342  32.8695401
  39.2960528  46.6993806  32.6395204  33.4321077  41.8135920  33.2046847
  33.1271212  42.1282069  34.0556990  34.3851519  41.8917340  33.2474180
  31.8767508  47.9726143  34.8539801  31.3488870  47.2378903  34.5413038
  31.3755011  48.7500820  34.6079769  36.8560354  46.1675164  39.9706847
  36.1984029  46.8574425  40.0586976  37.6600754  46.5571596  40.3140834
  26.6086236  38.6345810  37.2146413  27.1829988  38.4120991  36.4819606
  27.1957218  38.7034504  37.9675014  35.6665813  44.5219537  38.0210789
  36.1797695  45.1549528  38.5232499  36.3167037  43.9220732  37.6554149
  26.9355823  40.6650271  31.2342298  26.0993135  41.0024957  31.5551573
  26.7960593  40.5299251  30.2969435  28.9108904  35.5087059  35.9421482
  28.2573316  35.1936076  35.3178097  28.8689378  34.8862799  36.6681305
  30.0220109  45.7906354  27.8574774  29.1147170  45.5595607  28.0565923
  30.5191141  44.9943973  28.0448756  32.9288187  54.5003861  30.7771460
  32.2549886  54.8035558  31.3856418  33.3154009  55.3032941  30.4276917
  32.1446644  41.9968992  40.2669130  31.2269205  42.2183939  40.1090818
  32.5606788  42.0715303  39.4080837  32.9281692  43.3960408  35.3971810
  33.6753511  43.9081805  35.0878932  33.1973281  43.0744461  36.2576203
  31.2008342  45.8918949  32.3798764  30.2919561  45.6077981  32.4771234
  31.2303426  46.3118027  31.5202071  36.4327609  49.5025538  36.1489932
  35.9789937  48.6616448  36.2055122  35.8021576  50.1386936  36.4864712
  35.3760529  40.4317524  37.3790599  34.6383286  39.9194910  37.7100842
  35.6287303  39.9917906  36.5673876  34.8760549  51.3402035  37.0839750
  35.1683523  51.9007092  36.3652115  35.3859169  51.6330596  37.8392909
  35.4772156  33.2093776  37.9732368  35.7831033  32.3491140  37.6858284
  36.2024761  33.8011396  37.7731362  21.7696512  43.6124463  36.3613966
  21.5720912  43.0193823  35.6365033  21.2143176  43.3076673  37.0789905
  29.7493236  43.5047569  38.4808560  29.8041846  42.5521406  38.4051036
  28.9384438  43.6607008  38.9649858  30.8984430  47.4327692  29.7186843
  30.4603860  46.7163551  29.2592480  31.6394871  47.6603807  29.1571934
  27.6885596  42.1224629  36.2398938  26.8753462  42.4218799  36.6464131
  28.1844590  41.7280318  36.9573421  29.8394174  52.1182386  38.1733203
  29.7970353  52.3443232  37.2441735  30.7556873  51.8845760  38.3219004
  39.0157545  45.7084889  35.7763161  38.8775443  45.8986485  34.8484351
  38.6593763  46.4704272  36.2331212  27.1799671  39.6942984  41.8560173
  27.8199050  39.5531744  41.1583137  26.3477201  39.4077498  41.4798775
  39.0426924  47.7761416  40.7874433  39.4763431  47.6836705  41.6357487
  39.7558505  47.7518917  40.1494449  27.9559975  48.9945415  37.9695166
  28.7500573  48.4995735  37.7677741  27.2451667  48.4663278  37.6062871
  32.7754819  51.3763510  42.3207533  32.8291841  51.9454447  43.0885249
  31.9069600  51.5465395  41.9561571  24.2642738  43.1388497  34.0454918
  23.3340326  43.0772952  34.2624881  24.3600210  42.6164449  33.2491560
  24.1828287  39.6643309  36.6333160  24.4435104  40.5788643  36.5242321
  25.0045459  39.1967752  36.7829773  25.6553212  41.0781067  43.8031985
  26.3276266  40.8698429  43.1544634  24.8282999  40.8803153  43.3637217
  39.9042474  47.8185117  43.3207318  40.0978364  48.7230927  43.5666593
  39.8043092  47.3592536  44.1545903  31.7342919  45.5423772  43.8794465
  32.6634979  45.6934932  43.7063433  31.3133949  45.6307793  43.0243112
  30.5331251  49.5674437  41.6493003  30.3942336  49.1993221  42.5218941
  29.7445847  50.0822076  41.4776961  31.1279403  54.6683533  32.9918539
  31.3031158  54.1971576  33.8064162  30.4412191  55.2949300  33.2199800
  32.0836466  48.9456040  39.0381841  31.7486298  48.9056809  39.9339491
  31.5840411  48.2800755  38.5652251  26.0580710  44.3523670  44.5634422
  25.9200508  43.6203908  45.1645961  26.9685633  44.2632570  44.2818610
  35.0195657  46.2912074  29.3118900  34.4024828  45.5658902  29.2151953
  34.5512146  47.0521434  28.9685975  28.6863010  44.0643629  44.0518101
  29.3962629  43.4236821  44.0104720  28.6432319  44.3156524  44.9744282
  36.6749789  51.0010982  46.9724681  36.6162335  50.3170202  46.3055264
  37.0769307  51.7429972  46.5205307  25.6940488  57.8172896  39.7658400
  25.9337086  58.4491420  40.4437418  24.8509684  57.4660936  40.0523759
  26.8094203  40.5097498  28.4340205  25.9323670  40.3886299  28.0702451
  27.2851956  39.7183576  28.1819093  36.6767196  48.9650566  45.2038660
  35.7893975  48.6276488  45.3265059  37.2465747  48.2333597  45.4407426
  18.3296343  45.2974658  38.5281712  19.0167383  44.9836388  37.9402727
  18.1744472  46.2016023  38.2548963  23.1331066  40.1864854  42.9566735
  23.0489254  39.5790524  42.2217145  22.3113772  40.6773873  42.9576232
  30.2068350  53.6252019  42.1699904  30.1338521  54.4306990  42.6819208
  29.7645743  53.8243984  41.3447925  29.9958129  52.8623789  35.6802725
  29.2125651  53.4045469  35.7740950  30.6950875  53.3797768  36.0796966
  33.3054779  38.6718418  38.3236931  33.8023479  37.9188380  38.0038001
  32.5341761  38.7082735  37.7580140  41.1584537  44.3758784  39.9655222
  41.1474413  45.2583499  39.5949155  40.2901916  44.0230334  39.7709759
  32.6667033  53.5238853  44.3258062  33.3795005  54.1586317  44.2533964
  32.1757062  53.6202719  43.5098064  34.3884560  47.4290105  35.8975354
  33.4540839  47.5491568  35.7280058  34.5661229  46.5262572  35.6335364
  29.8889748  40.8135801  38.0508615  29.5187536  40.2606841  38.7389521
  30.3848841  40.2093934  37.4983615  37.7757112  43.2707424  36.4325388
  38.2417564  44.1035416  36.3585691  38.2264612  42.8052406  37.1370647
  27.7178947  51.2733296  45.1463633  28.4188406  51.9069779  45.2993027
  27.2474062  51.6148028  44.3859272  35.8433343  49.6151246  33.4311540
  36.1193187  49.5007840  34.3405414  34.9737841  49.2168731  33.3923713
  35.5180233  43.8277903  42.9716183  34.8651683  44.0753811  42.3168636
  35.8960613  43.0142042  42.6378661  32.4787407  53.8637597  37.0744354
  32.6609801  53.0459253  37.5372106  33.3020393  54.0805289  36.6369244
  32.8129572  52.7905782  34.3359402  33.3417339  52.2798236  33.7229564
  33.0757792  52.4748312  35.2004935  23.3146665  50.8069651  42.0794736
  23.9000102  50.0613339  42.2122640  23.1171503  51.1173608  42.9631400
  26.1685320  53.8420898  37.0957178  25.4995695  54.3267026  36.6121218
  26.0298190  54.0890119  38.0100557  17.9064320  43.3775251  40.7999179
  17.9448419  42.8438842  41.5936297  17.4004612  42.8510457  40.1810156
  30.3090589  55.8764642  43.6939836  30.8608897  56.0396263  44.4588922
  30.6496782  56.4669080  43.0219861  25.2855082  38.2239792  44.2961721
  25.3496408  39.0854623  43.8839119  25.2222202  37.6113793  43.5634080
  24.7607354  40.2962924  47.9434755  25.3879393  39.9140002  48.5572280
  23.9035273  40.0777126  48.3090448  35.1601463  50.7025899  49.5488491
  35.7041367  51.3155858  49.0543446  34.5788308  51.2605478  50.0655504
  21.5372897  42.1039353  33.8753110  21.8326338  41.1950032  33.8220164
  20.6360933  42.0827093  33.5534113  33.4458976  53.8246617  40.6803519
  33.3210115  53.0236357  40.1714464  34.1038067  54.3192811  40.1917489
  25.0667144  40.1795350  39.8580659  24.3453730  40.7931318  39.7188132
  25.8560400  40.7153115  39.7797305  35.5093884  51.6255638  42.3083069
  34.5624220  51.5060989  42.2361395  35.8576657  50.7378136  42.3909330
  27.8693458  37.5149776  46.1321311  28.3927860  37.7612073  46.8947620
  27.6505791  38.3469811  45.7124448  23.2660739  39.7853451  33.9992435
  22.9373445  38.9050830  33.8167541  23.6200109  39.7301120  34.8868825
  32.5140318  51.4208354  38.5087421  32.3665280  50.4925061  38.6894991
  33.3393811  51.4428444  38.0244496  26.3802562  40.0726421  34.3667913
  26.7198634  40.6012342  33.6446521  26.8274682  40.4106827  35.1426480
  36.1174439  52.2436913  39.5952294  37.0420987  52.0379774  39.4576745
  35.9489743  51.9953314  40.5041635  29.0746003  38.4563472  43.8170981
  28.7342823  37.6571285  44.2191661  28.3685009  38.7565182  43.2447814
  29.7262475  35.5412784  42.2698304  30.5488544  35.0673262  42.1477194
  29.9700538  36.3203268  42.7696990  28.3670709  38.5701042  32.5661206
  29.0879072  38.9482295  32.0624923  27.7436013  39.2889919  32.6696184
  32.5101832  39.2746191  33.5019538  32.7265446  40.1570829  33.2008366
  32.0295899  38.8832405  32.7725180  27.2501053  42.2331905  40.0790283
  27.1045634  42.5472208  40.9714564  26.7726257  42.8516805  39.5261181
  29.1097436  39.2234453  40.1271172  29.0959005  38.3275546  39.7903470
  29.8269864  39.2305116  40.7609458  35.9069756  52.7622580  34.9514385
  36.0806633  52.1969002  34.1988238  36.3998647  53.5623475  34.7693875
  21.7246715  44.7737249  43.0177944  21.1800184  45.5497057  43.1498218
  22.6026065  45.1208054  42.8597065  28.5134332  38.1048833  35.3958742
  28.6350243  37.1765479  35.5949630  28.2236375  38.1187519  34.4837058
  31.3825523  35.7903743  38.5325462  31.4047219  35.8543076  37.5777442
  31.7993582  34.9508252  38.7265968  41.7609147  45.5259003  36.5704685
  42.2040293  44.7766328  36.1723808  40.8835657  45.5169139  36.1878417
  36.8944928  52.0789344  32.0511283  37.5895833  52.6996037  32.2698598
  37.2368078  51.2284696  32.3263661  22.5112737  43.9007145  45.9108101
  21.7694473  44.0489781  46.4972731  22.1905482  44.1615411  45.0474850
  38.7936351  49.5289050  33.5798614  39.3187675  49.8676323  32.8547934
  38.7058704  48.5936065  33.3961749  30.4556400  53.4423124  45.7088491
  30.7643526  53.1972270  46.5811190  31.2531882  53.6469762  45.2207361
  30.4777012  55.5961033  37.9393867  30.0382002  55.1037412  38.6326724
  31.2285129  55.0534001  37.6985943  22.9569351  51.7872574  37.9418495
  23.7827371  51.4876346  37.5617139  22.6063403  51.0180196  38.3908284
  27.9250884  51.1399042  40.0116169  27.3030893  50.4769747  39.7118397
  28.5955751  51.1660174  39.3289817  21.1577956  49.7058901  38.9007429
  20.3209864  49.2781075  38.7191430  21.1301602  49.8991344  39.8378220
  27.9975412  39.6180830  49.6048675  28.0463567  40.4942953  49.2226445
  28.5397926  39.0758223  49.0320318  38.4830257  50.1621954  48.8849812
  37.6925801  50.1446092  48.3454312  38.2463612  50.7010247  49.6398849
  38.6028132  47.0114420  46.1982541  38.6526137  46.8464427  47.1398063
  38.4942056  46.1441679  45.8080421  27.4864391  49.6902966  33.4874630
  27.6352511  50.3738430  32.8341302  28.2930835  49.6708056  34.0024085
  40.1046329  49.4311361  46.4424562  39.8131138  49.7941342  47.2788023
  39.4918461  48.7178370  46.2637894  41.3042012  46.9964241  38.9627132
  42.1388903  47.4354045  39.1264693  41.4401140  46.5202894  38.1435378
  38.3533517  44.5543976  44.9104620  38.8287639  44.7471622  44.1023472
  37.4299083  44.6103162  44.6648004  25.2417024  45.7168143  34.4935699
  24.9963066  44.8130473  34.6915909  25.4112939  45.7185294  33.5515177
  24.5112672  41.4496501  31.9921860  23.8181917  41.5240856  31.3361896
  24.2664424  40.6856844  32.5143377  33.1826328  33.0092102  39.3961351
  33.4628082  32.3415291  40.0221777  33.9676935  33.2021198  38.8836015
  30.9859797  52.1851096  30.9586377  30.4133764  52.8041283  30.5056849
  31.5592590  52.7350458  31.4926299  37.0535186  41.4309736  43.1432926
  38.0052609  41.5307834  43.1645150  36.8838637  40.6388005  43.6531010
  34.2057056  52.4688246  32.0894959  35.1387730  52.4033808  32.2927835
  34.1180269  53.3044513  31.6309492  36.8345073  51.7854117  29.0498907
  36.7558705  51.4513980  29.9434665  37.6554740  52.2775884  29.0490379
  39.5323264  44.6515856  42.2575225  39.4999584  43.7131857  42.4434909
  40.1423888  44.7299893  41.5241050  31.3706595  43.5211909  28.3002430
  32.3165700  43.3918117  28.3690848  30.9920840  42.7826571  28.7771858
  39.6817753  41.4426899  42.3033509  39.1656801  40.6585356  42.1163438
  40.5657701  41.1145616  42.4680028  37.3428480  35.1867915  38.2629321
  37.1453301  34.8783003  39.1472653  37.9528185  35.9129554  38.3927251
  43.4315111  43.8539725  41.9955713  42.7048275  43.7195690  41.3872205
  43.0162398  44.1616554  42.8012432  29.5549512  41.4461885  28.2357315
  28.6480968  41.1494998  28.3120028  29.8325493  41.1491703  27.3691601
  20.4727453  42.7668249  38.6856361  20.1530237  41.9133557  38.3930735
  19.9260881  42.9816827  39.4414328  24.2507360  45.4830690  42.4025868
  24.4693370  46.4147797  42.4213901  24.6633134  45.1238664  43.1880671
  31.1711578  35.9898775  34.3901556  30.3612306  35.6445860  34.7656802
  31.8595995  35.6806319  34.9789168  33.1002126  35.0676822  36.0125853
  33.6533165  35.4872275  36.6715876  33.3372213  34.1412570  36.0548809
  29.1235226  41.0563895  51.7928617  29.0231952  42.0058252  51.7240708
  28.9056768  40.7282134  50.9204687  28.3248297  38.3048820  28.3769294
  29.1867461  38.6303719  28.6365111  28.5098641  37.5180316  27.8642360
  20.3415713  46.3871160  40.6549483  19.6479184  45.9725113  40.1419437
  21.0888704  46.4291697  40.0582902  36.4780933  37.1777347  35.5204517
  35.8979602  37.8362151  35.1382569  36.2116866  36.3554691  35.1091934
  34.9284500  36.5782405  37.7225837  35.4284278  36.6898939  36.9140156
  35.5720108  36.2743457  38.3626646  22.2552455  46.3189414  38.5315498
  22.2323143  46.4177101  37.5797381  22.5653092  47.1654565  38.8532664
  24.9139833  48.3765569  42.6462112  25.8683087  48.3449511  42.5792044
  24.7152357  47.9156193  43.4612338  25.5039215  46.9466685  45.2132910
  26.3232104  47.4410764  45.2367747  25.7776023  46.0298653  45.1850477
  35.2605811  39.3377437  34.5760865  34.3731666  39.6227088  34.3581060
  35.6759800  39.1771201  33.7288142  38.6120348  39.3623958  38.2915204
  39.3880738  39.8520411  38.5639821  37.8868482  39.7882012  38.7487074
  41.0492906  40.0751577  39.3489145  41.6437397  39.8347313  38.6382453
  41.1219490  39.3558708  39.9762681  23.2690062  53.9185188  39.6632310
  23.1344530  53.1585589  39.0970308  22.8522124  54.6426088  39.1961099
  34.4049025  49.1022112  28.6708885  35.1084875  49.3072114  29.2866541
  33.6811674  49.6698874  28.9357969  35.2346835  44.8531973  34.7911155
  35.1782037  45.3100525  33.9518788  35.7875178  44.0922658  34.6133998
  39.0451641  40.6421705  35.6161275  38.7888575  40.2418341  36.4469483
  38.4204509  41.3565499  35.4911414  43.3563979  43.3817778  38.1232566
  42.7963537  43.4510968  38.8964128  42.7507482  43.2058763  37.4032063
  26.4259188  54.8154505  39.8750753  26.3091572  55.7599938  39.7729443
  25.6051634  54.5128067  40.2636552  36.3135722  49.5404641  30.7207345
  37.1481326  49.1085840  30.5384820  36.1520065  49.3686655  31.6484240
  35.9681614  46.0436754  32.0863685  35.9130418  45.8781026  31.1452129
  35.3427670  46.7512787  32.2425874  20.7574129  41.2804819  45.9125107
  21.4032993  40.7703773  46.4012332  20.5491281  42.0173500  46.4868532
  29.2777740  35.5444863  31.6649003  29.2656410  36.4886703  31.8217274
  30.1701162  35.3615009  31.3708464  27.4513702  55.4682767  43.0906681
  28.3540949  55.5006378  43.4073176  27.2251072  54.5383218  43.1053017
  29.2067304  54.2213754  39.7516760  28.2562935  54.2215615  39.6381132
  29.5099790  53.4746488  39.2352794  33.0929859  32.1387640  35.9194940
  32.3262255  31.5846127  36.0651622  33.5040564  32.2109509  36.7809091
  41.7509704  60.0101720  40.7524047  41.4128215  59.8942785  39.8644582
  42.6199472  59.6092885  40.7325053  37.6096519  61.8637197  36.7420938
  37.0461384  61.7727134  35.9737225  37.4948914  61.0437101  37.2223430
  35.1560951  63.3588388  39.5805158  35.9482243  63.0179213  39.1651457
  35.3957601  63.4683363  40.5007311  43.1896078  65.5308164  32.0535403
  42.5384058  66.1162245  31.6669416  43.9840441  66.0614359  32.1130440
  37.1151705  62.6197302  32.4522537  37.8882581  62.0726289  32.3135413
  37.4677104  63.4841551  32.6636998  38.9536748  63.9473684  45.6589436
  38.6626614  64.8519315  45.5436103  39.5893732  63.9890211  46.3733506
  39.8792955  61.3250532  42.2490796  40.4756527  61.1006555  41.5347759
  39.9367926  60.5835278  42.8516244  39.4517983  58.7789968  30.0840987
  39.7043504  58.2571489  29.3224450  38.5142542  58.6156113  30.1867670
  44.4961266  57.7825746  37.8915730  45.2824355  57.3645169  37.5406147
  44.7599970  58.6871838  38.0597378  44.6671343  63.2198596  32.5904387
  44.0317176  63.2933223  33.3025291  44.3368750  63.8092195  31.9123466
  49.8969693  57.7200979  38.7948709  50.6294865  57.1500196  39.0286538
  49.1409049  57.3322580  39.2355214  39.1714272  60.6818074  32.2865362
  39.0550530  60.0062977  32.9546446  39.2816532  60.1950448  31.4697515
  41.5145813  60.1428221  35.9912051  41.1504020  59.6158842  36.7024972
  42.3712929  59.7526690  35.8178536  41.1551300  55.1718120  30.9873400
  41.3225702  56.0398357  31.3543871  40.9648469  55.3345402  30.0634689
  43.9126633  63.6335099  42.6539230  43.6127356  64.5360138  42.5455037
  43.5677692  63.3667283  43.5060383  37.3639114  60.0848896  38.6875934
  36.4389611  59.9525110  38.8953626  37.6123528  60.8643115  39.1845877
  41.1340521  57.6275778  31.9720066  41.0140146  58.0732829  32.8105547
  40.4393109  57.9761096  31.4133604  34.7247925  59.7282170  39.5219723
  34.8540307  59.9816649  40.4359135  34.0445377  60.3209878  39.2024378
  38.8947413  70.3979420  35.6210198  38.8171442  71.3487245  35.6998678
  38.2909056  70.0525292  36.2785124  41.3864642  57.5707285  48.2771564
  40.6097977  58.1301205  48.2674429  42.0255206  58.0564068  48.7986435
  46.8325587  58.0997251  32.8000400  47.7443443  58.3324638  32.6248098
  46.3235234  58.6834295  32.2375479  39.6411015  60.3792739  47.8389531
  40.3825699  60.9177782  47.5624355  38.9348000  61.0059027  47.9961083
  45.4395169  63.0823070  40.1913982  44.8104031  63.2468784  39.4890050
  45.0520831  63.4964679  40.9624946  49.3184401  64.0177507  37.5458346
  48.6335439  64.3976409  36.9955379  49.4028250  64.6272834  38.2790293
  40.9923131  62.8197478  37.4564067  41.4561476  63.0985181  36.6668689
  40.7279929  61.9180922  37.2737158  37.8847212  62.3668959  40.3943830
  38.4548569  62.7956228  39.7561315  38.4755324  62.0851544  41.0928016
  39.9292017  58.9420630  34.2653632  40.6316060  59.3941674  34.7327558
  39.5972645  58.3004449  34.8933525  38.3772378  57.5332387  48.6404841
  37.7471039  58.2148668  48.8740238  38.2708466  57.4215468  47.6957980
  33.6717351  57.2004183  39.5670766  32.8816405  57.4561711  39.0910876
  34.1628598  58.0152521  39.6722806  47.6881160  64.5409422  42.3176046
  48.5098604  64.1389609  42.0358728  47.6843563  64.4377656  43.2692162
  35.6232096  57.5648762  36.5254242  34.8263260  57.6767456  37.0437738
  35.3957689  57.9035414  35.6595133  41.4537764  64.0893465  44.4736757
  41.5182196  64.5513872  45.3094929  40.7448688  63.4590830  44.6019067
  31.9555054  57.4534673  41.9985756  32.2063092  58.3381683  42.2643332
  32.4914602  57.2739275  41.2260848  41.1685782  65.7561573  34.3415737
  41.0331456  66.6013108  34.7700585  41.7095594  65.9580850  33.5781671
  37.6553121  51.8353153  51.0030093  37.2620067  51.2819351  51.6777737
  38.4719262  52.1463731  51.3936610  34.6215179  63.2737011  34.9143662
  35.1339700  64.0680261  35.0649227  35.2737892  62.5763301  34.8477264
  36.4310064  66.3902767  36.9966416  36.6076692  67.3120732  36.8087399
  37.2266897  66.0761186  37.4260795  40.5721082  53.2511032  48.5950349
  41.3130796  53.8518185  48.5154812  40.8039005  52.5088669  48.0368392
  35.7162420  58.4367399  46.8728579  35.6015935  57.5352656  47.1735678
  34.8606938  58.6831096  46.5213395  42.7954258  66.3785139  48.4716079
  42.3518112  65.5921518  48.1536984  43.4571472  66.5664290  47.8059970
  37.5541379  67.9080941  42.9976758  38.1048804  67.7798004  42.2253752
  36.7152855  68.2075830  42.6471651  44.8935496  66.6587939  46.4997481
  44.8753971  67.4796820  46.0077750  45.8155416  66.5342014  46.7247622
  41.3508550  64.1732069  47.3420989  41.8836887  63.4120357  47.1120297
  40.8222631  63.8805720  48.0845143  32.5864096  61.6025665  35.6903233
  33.4239318  62.0122673  35.4736941  32.7642363  60.6625107  35.6603427
  44.4828528  59.2700746  31.3787066  43.9675151  60.0405350  31.6175453
  44.2105836  58.5965882  32.0020127  42.0675639  54.1150446  36.4372304
  41.2117235  53.7257297  36.2577943  42.4802591  54.1942407  35.5772090
  39.8417671  51.7335519  39.8430046  40.7070668  51.5378328  39.4835935
  39.9095180  51.5045871  40.7699403  49.4562802  62.0233100  33.3140239
  48.6792245  61.6844260  32.8695401  50.1354283  62.0285724  32.6395204
  44.2714831  57.1427838  33.2046847  43.9664967  57.4573987  34.0556990
  45.2245273  57.2209258  33.2474180  42.7161263  63.3018061  34.8539801
  42.1882624  62.5670821  34.5413038  42.2148766  64.0792737  34.6079769
  47.6954109  61.4967082  39.9706847  47.0377783  62.1866343  40.0586976
  48.4994508  61.8863514  40.3140834  37.4479991  53.9637727  37.2146413
  38.0223742  53.7412909  36.4819606  38.0350973  54.0326422  37.9675014
  46.5059568  59.8511454  38.0210789  47.0191449  60.4841446  38.5232499
  47.1560792  59.2512650  37.6554149  37.7749578  55.9942188  31.2342298
  36.9386890  56.3316875  31.5551573  37.6354347  55.8591168  30.2969435
  39.7502658  50.8378976  35.9421482  39.0967071  50.5227993  35.3178097
  39.7083132  50.2154717  36.6681305  40.8613863  61.1198271  27.8574774
  39.9540925  60.8887525  28.0565923  41.3584895  60.3235891  28.0448756
  43.7681942  69.8295779  30.7771460  43.0943641  70.1327475  31.3856418
  44.1547764  70.6324859  30.4276917  43.7675446  58.7252326  35.3971810
  44.5147265  59.2373723  35.0878932  44.0367036  58.4036378  36.2576203
  42.0402097  61.2210866  32.3798764  41.1313316  60.9369899  32.4771234
  42.0697180  61.6409945  31.5202071  47.2721364  64.8317456  36.1489932
  46.8183691  63.9908366  36.2055122  46.6415331  65.4678854  36.4864712
  46.2154283  55.7609442  37.3790599  45.4777040  55.2486828  37.7100842
  46.4681057  55.3209823  36.5673876  45.7154303  66.6693952  37.0839750
  46.0077278  67.2299010  36.3652115  46.2252924  66.9622513  37.8392909
  32.6090267  58.9416380  36.3613966  32.4114667  58.3485741  35.6365033
  32.0536931  58.6368591  37.0789905  40.5886991  58.8339487  38.4808560
  40.6435600  57.8813323  38.4051036  39.7778193  58.9898926  38.9649858
  41.7378184  62.7619610  29.7186843  41.2997614  62.0455469  29.2592480
  42.4788625  62.9895725  29.1571934  38.5279350  57.4516547  36.2398938
  37.7147216  57.7510717  36.6464131  39.0238345  57.0572235  36.9573421
  40.6787928  67.4474304  38.1733203  40.6364107  67.6735150  37.2441735
  41.5950627  67.2137678  38.3219004  49.8551299  61.0376807  35.7763161
  49.7169198  61.2278403  34.8484351  49.4987518  61.7996190  36.2331212
  38.0193425  55.0234902  41.8560173  38.6592805  54.8823661  41.1583137
  37.1870956  54.7369415  41.4798775  49.8820679  63.1053334  40.7874433
  50.3157185  63.0128623  41.6357487  50.5952259  63.0810834  40.1494449
  38.7953729  64.3237333  37.9695166  39.5894328  63.8287653  37.7677741
  38.0845422  63.7955196  37.6062871  43.6148574  66.7055428  42.3207533
  43.6685596  67.2746364  43.0885249  42.7463355  66.8757313  41.9561571
  35.1036493  58.4680414  34.0454918  34.1734081  58.4064870  34.2624881
  35.1993965  57.9456367  33.2491560  35.0222042  54.9935227  36.6333160
  35.2828859  55.9080560  36.5242321  35.8439214  54.5259670  36.7829773
  36.4946967  56.4072984  43.8031985  37.1670020  56.1990346  43.1544634
  35.6676754  56.2095070  43.3637217  42.3972539  53.0334925  45.8197646
  41.7500454  53.7324875  45.7262122  43.1673554  53.4671069  46.1873894
  41.3725005  64.8966355  41.6493003  41.2336091  64.5285139  42.5218941
  40.5839601  65.4113994  41.4776961  41.9673157  69.9975451  32.9918539
  42.1424913  69.5263494  33.8064162  41.2805945  70.6241217  33.2199800
  42.9230220  64.2747957  39.0381841  42.5880053  64.2348727  39.9339491
  42.4234166  63.6092673  38.5652251  36.8974464  59.6815587  44.5634422
  36.7594262  58.9495826  45.1645961  37.8079388  59.5924487  44.2818610
  45.8589412  61.6203992  29.3118900  45.2418583  60.8950820  29.2151953
  45.3905900  62.3813352  28.9685975  39.5256765  59.3935547  44.0518101
  40.2356383  58.7528739  44.0104720  39.4826073  59.6448441  44.9744282
  38.2385699  56.3800764  45.8713741  37.7023056  55.9291503  46.5235337
  37.6502407  56.5146673  45.1284205  36.5334242  73.1464814  39.7658400
  36.7730841  73.7783338  40.4437418  35.6903439  72.7952854  40.0523759
  37.6487958  55.8389416  28.4340205  36.7717424  55.7178217  28.0702451
  38.1245711  55.0475494  28.1819093  29.1690098  60.6266576  38.5281712
  29.8561138  60.3128306  37.9402727  29.0138227  61.5307940  38.2548963
  33.9724820  55.5156772  42.9566735  33.8883009  54.9082442  42.2217145
  33.1507527  56.0065790  42.9576232  41.0462104  68.9543936  42.1699904
  40.9732276  69.7598908  42.6819208  40.6039497  69.1535902  41.3447925
  40.8351884  68.1915706  35.6802725  40.0519406  68.7337386  35.7740950
  41.5344629  68.7089686  36.0796966  51.9978291  59.7050701  39.9655222
  51.9868168  60.5875417  39.5949155  51.1295671  59.3522252  39.7709759
  43.5060788  68.8530770  44.3258062  44.2188760  69.4878235  44.2533964
  43.0150816  68.9494636  43.5098064  45.2278315  62.7582023  35.8975354
  44.2934593  62.8783485  35.7280058  45.4054983  61.8554490  35.6335364
  40.7283503  56.1427719  38.0508615  40.3581290  55.5898759  38.7389521
  41.2242595  55.5385852  37.4983615  48.6150866  58.5999342  36.4325388
  49.0811318  59.4327334  36.3585691  49.0658367  58.1344324  37.1370647
  38.5572701  66.6025214  45.1463633  39.2582161  67.2361697  45.2993027
  38.0867816  66.9439945  44.3859272  46.6827097  64.9443163  33.4311540
  46.9586941  64.8299758  34.3405414  45.8131596  64.5460648  33.3923713
  43.3181161  69.1929514  37.0744354  43.5003556  68.3751170  37.5372106
  44.1414147  69.4097207  36.6369244  43.6523327  68.1197699  34.3359402
  44.1811093  67.6090154  33.7229564  43.9151546  67.8040230  35.2004935
  42.4061560  59.8989632  49.4582220  41.7302197  59.7983762  50.1284596
  43.2289194  59.7428846  49.9218218  34.1540419  66.1361569  42.0794736
  34.7393856  65.3905257  42.2122640  33.9565258  66.4465525  42.9631400
  37.0079075  69.1712816  37.0957178  36.3389450  69.6558944  36.6121218
  36.8691944  69.4182037  38.0100557  28.7458074  58.7067169  40.7999179
  28.7842174  58.1730760  41.5936297  28.2398367  58.1802374  40.1810156
  41.1484343  71.2056560  43.6939836  41.7002651  71.3688181  44.4588922
  41.4890537  71.7960997  43.0219861  36.1248836  53.5531709  44.2961721
  36.1890163  54.4146540  43.8839119  36.0615957  52.9405711  43.5634080
  35.6001109  55.6254842  47.9434755  36.2273148  55.2431919  48.5572280
  34.7429028  55.4069044  48.3090448  32.3766652  57.4331271  33.8753110
  32.6720093  56.5241950  33.8220164  31.4754687  57.4119011  33.5534113
  44.2852730  69.1538535  40.6803519  44.1603870  68.3528275  40.1714464
  44.9431822  69.6484729  40.1917489  35.9060899  55.5087268  39.8580659
  35.1847484  56.1223235  39.7188132  36.6954154  56.0445032  39.7797305
  46.3487639  66.9547555  42.3083069  45.4017974  66.8352906  42.2361395
  46.6970412  66.0670053  42.3909330  34.1054493  55.1145369  33.9992435
  33.7767199  54.2342748  33.8167541  34.4593864  55.0593037  34.8868825
  43.3534072  66.7500271  38.5087421  43.2059035  65.8216979  38.6894991
  44.1787566  66.7720362  38.0244496  37.2196316  55.4018339  34.3667913
  37.5592389  55.9304260  33.6446521  37.6668437  55.7398745  35.1426480
  39.9139757  53.7855389  43.8170981  39.5736578  52.9863202  44.2191661
  39.2078764  54.0857100  43.2447814  40.5656229  50.8704702  42.2698304
  41.3882298  50.3965180  42.1477194  40.8094293  51.6495185  42.7696990
  39.2064464  53.8992960  32.5661206  39.9272826  54.2774213  32.0624923
  38.5829768  54.6181837  32.6696184  43.3495586  54.6038109  33.5019538
  43.5659201  55.4862747  33.2008366  42.8689654  54.2124323  32.7725180
  38.0894808  57.5623822  40.0790283  37.9439389  57.8764125  40.9714564
  37.6120011  58.1808723  39.5261181  39.9491191  54.5526370  40.1271172
  39.9352759  53.6567464  39.7903470  40.6663619  54.5597034  40.7609458
  46.7463510  68.0914498  34.9514385  46.9200388  67.5260920  34.1988238
  47.2392401  68.8915393  34.7693875  32.5640470  60.1029167  43.0177944
  32.0193938  60.8788975  43.1498218  33.4419820  60.4499971  42.8597065
  39.3528087  53.4340751  35.3958742  39.4743998  52.5057397  35.5949630
  39.0630129  53.4479437  34.4837058  42.2219277  51.1195661  38.5325462
  42.2440974  51.1834994  37.5777442  42.6387336  50.2800170  38.7265968
  47.7338683  67.4081262  32.0511283  48.4289587  68.0287955  32.2698598
  48.0761833  66.5576613  32.3263661  33.3506492  59.2299063  45.9108101
  32.6088228  59.3781698  46.4972731  33.0299236  59.4907329  45.0474850
  49.6330106  64.8580968  33.5798614  50.1581430  65.1968240  32.8547934
  49.5452458  63.9227983  33.3961749  41.2950154  68.7715041  45.7088491
  41.6037281  68.5264188  46.5811190  42.0925637  68.9761680  45.2207361
  41.3170767  70.9252951  37.9393867  40.8775757  70.4329330  38.6326724
  42.0678884  70.3825919  37.6985943  33.7963106  67.1164492  37.9418495
  34.6221125  66.8168264  37.5617139  33.4457158  66.3472114  38.3908284
  38.7644639  66.4690960  40.0116169  38.1424648  65.8061665  39.7118397
  39.4349506  66.4952092  39.3289817  31.9971711  65.0350818  38.9007429
  31.1603619  64.6072993  38.7191430  31.9695356  65.2283262  39.8378220
  38.8369166  54.9472748  49.6048675  38.8857322  55.8234871  49.2226445
  39.3791680  54.4050141  49.0320318  38.3258146  65.0194883  33.4874630
  38.4746266  65.7030348  32.8341302  39.1324589  64.9999973  34.0024085
  41.0668455  55.7004120  46.3595034  40.1971764  55.9937686  46.0877622
  41.3027935  56.2844565  47.0802297  36.0810779  61.0460061  34.4935699
  35.8356821  60.1422391  34.6915909  36.2506693  61.0477211  33.5515177
  35.3506426  56.7788419  31.9921860  34.6575671  56.8532773  31.3361896
  35.1058178  56.0148762  32.5143377  41.8253551  67.5143014  30.9586377
  41.2527518  68.1333201  30.5056849  42.3986345  68.0642375  31.4926299
  45.0450811  67.7980164  32.0894959  45.9781484  67.7325726  32.2927835
  44.9574024  68.6336431  31.6309492  47.6738828  67.1146034  29.0498907
  47.5952459  66.7805898  29.9434665  48.4948494  67.6067802  29.0490379
  42.2100350  58.8503826  28.3002430  43.1559454  58.7210035  28.3690848
  41.8314595  58.1118488  28.7771858  42.0939042  62.9021573  49.7603086
  43.0142052  63.0800172  49.9543133  42.0588625  61.9577618  49.6082786
  40.3943267  56.7753803  28.2357315  39.4874722  56.4786916  28.3120028
  40.6719248  56.4783621  27.3691601  31.3121207  58.0960166  38.6856361
  30.9923992  57.2425474  38.3930735  30.7654635  58.3108744  39.4414328
  35.0901115  60.8122607  42.4025868  35.3087124  61.7439715  42.4213901
  35.5026889  60.4530582  43.1880671  42.0105333  51.3190693  34.3901556
  41.2006061  50.9737778  34.7656802  42.6989749  51.0098236  34.9789168
  43.9395881  50.3968739  36.0125853  44.4926919  50.8164193  36.6715876
  44.1765967  49.4704488  36.0548809  39.9628980  56.3855813  51.7928617
  39.8625707  57.3350170  51.7240708  39.7450522  56.0574052  50.9204687
  39.1642051  53.6340738  28.3769294  40.0261215  53.9595636  28.6365111
  39.3492396  52.8472234  27.8642360  31.1809467  61.7163078  40.6549483
  30.4872939  61.3017031  40.1419437  31.9282458  61.7583614  40.0582902
  47.3174688  52.5069265  35.5204517  46.7373357  53.1654069  35.1382569
  47.0510621  51.6846609  35.1091934  45.7678254  51.9074322  37.7225837
  46.2678033  52.0190857  36.9140156  46.4113862  51.6035375  38.3626646
  39.8260250  59.8152952  50.6093678  39.3427332  60.6153312  50.8157567
  39.9121189  59.8260897  49.6561122  33.0946210  61.6481332  38.5315498
  33.0716898  61.7469019  37.5797381  33.4046846  62.4946482  38.8532664
  35.7533588  63.7057487  42.6462112  36.7076841  63.6741429  42.5792044
  35.5546111  63.2448110  43.4612338  36.3432970  62.2758603  45.2132910
  37.1625859  62.7702681  45.2367747  36.6169777  61.3590571  45.1850477
  46.0999566  54.6669355  34.5760865  45.2125421  54.9519006  34.3581060
  46.5153555  54.5063118  33.7288142  51.8886661  55.4043495  39.3489145
  52.4831151  55.1639231  38.6382453  51.9613244  54.6850626  39.9762681
  34.1083816  69.2477106  39.6632310  33.9738284  68.4877507  39.0970308
  33.6915879  69.9718006  39.1961099  45.2442779  64.4314030  28.6708885
  45.9478629  64.6364032  29.2866541  44.5205428  64.9990792  28.9357969
  46.0740590  60.1823891  34.7911155  46.0175791  60.6392442  33.9518788
  46.6268932  59.4214575  34.6133998  49.8845396  55.9713623  35.6161275
  49.6282330  55.5710258  36.4469483  49.2598264  56.6857417  35.4911414
  37.2652942  70.1446423  39.8750753  37.1485326  71.0891856  39.7729443
  36.4445389  69.8419985  40.2636552  47.1529477  64.8696559  30.7207345
  47.9875081  64.4377757  30.5384820  46.9913820  64.6978573  31.6484240
  46.8075369  61.3728672  32.0863685  46.7524173  61.2072944  31.1452129
  46.1821424  62.0804705  32.2425874  31.5967884  56.6096737  45.9125107
  32.2426748  56.0995690  46.4012332  31.3885035  57.3465418  46.4868532
  44.1221276  63.6777584  51.4117247  44.9912436  63.8518236  51.0503882
  43.6428028  64.4972001  51.2892977  40.1171494  50.8736781  31.6649003
  40.1050164  51.8178621  31.8217274  41.0094916  50.6906927  31.3708464
  38.2907456  70.7974685  43.0906681  39.1934703  70.8298295  43.4073176
  38.0644826  69.8675136  43.1053017  40.0461058  69.5505672  39.7516760
  39.0956689  69.5507533  39.6381132  40.3493545  68.8038406  39.2352794
  43.9323614  47.4679558  35.9194940  43.1656010  46.9138044  36.0651622
  44.3434319  47.5401427  36.7809091  35.9365375  53.7564354  50.0100121
  36.7996836  53.4001158  50.2203446  35.3630786  53.4178248  50.6975525
  55.7813752  75.3866210  40.8162522  56.4192162  75.2672957  40.1125862
  55.6634595  76.3347054  40.8750474  52.5903458  75.3393638  40.7524047
  52.2521970  75.2234703  39.8644582  53.4593226  74.9384803  40.7325053
  48.4490274  77.1929114  36.7420938  47.8855139  77.1019051  35.9737225
  48.3342669  76.3729019  37.2223430  45.9954706  78.6880306  39.5805158
  46.7875998  78.3471131  39.1651457  46.2351356  78.7975281  40.5007311
  54.0289833  80.8600082  32.0535403  53.3777812  81.4454163  31.6669416
  54.8234195  81.3906277  32.1130440  47.9545460  77.9489219  32.4522537
  48.7276336  77.4018206  32.3135413  48.3070859  78.8133469  32.6636998
  50.2911738  74.1081885  30.0840987  50.5437258  73.5863407  29.3224450
  49.3536297  73.9448031  30.1867670  55.5065098  78.5490514  32.5904387
  54.8710931  78.6225141  33.3025291  55.1762504  79.1384113  31.9123466
  50.0108026  76.0109991  32.2865362  49.8944284  75.3354895  32.9546446
  50.1210286  75.5242365  31.4697515  52.3539567  75.4720138  35.9912051
  51.9897774  74.9450759  36.7024972  53.2106683  75.0818608  35.8178536
  51.9945054  70.5010038  30.9873400  52.1619457  71.3690275  31.3543871
  51.8042223  70.6637320  30.0634689  48.2032869  75.4140814  38.6875934
  47.2783365  75.2817028  38.8953626  48.4517282  76.1935033  39.1845877
  51.9734275  72.9567696  31.9720066  51.8533900  73.4024746  32.8105547
  51.2786863  73.3053013  31.4133604  45.5641680  75.0574087  39.5219723
  45.6934061  75.3108566  40.4359135  44.8839131  75.6501795  39.2024378
  49.7341167  85.7271337  35.6210198  49.6565197  86.6779163  35.6998678
  49.1302811  85.3817210  36.2785124  57.6719341  73.4289169  32.8000400
  58.5837197  73.6616556  32.6248098  57.1628988  74.0126213  32.2375479
  56.2788924  78.4114987  40.1913982  55.6497786  78.5760701  39.4890050
  55.8914586  78.8256597  40.9624946  60.1578155  79.3469425  37.5458346
  59.4729194  79.7268327  36.9955379  60.2422005  79.9564752  38.2790293
  51.8316885  78.1489395  37.4564067  52.2955231  78.4277098  36.6668689
  51.5673684  77.2472840  37.2737158  48.7240966  77.6960877  40.3943830
  49.2942324  78.1248145  39.7561315  49.3149078  77.4143462  41.0928016
  50.7685771  74.2712548  34.2653632  51.4709815  74.7233591  34.7327558
  50.4366400  73.6296367  34.8933525  44.5111105  72.5296100  39.5670766
  43.7210159  72.7853629  39.0910876  45.0022353  73.3444438  39.6722806
  46.4625851  72.8940680  36.5254242  45.6657014  73.0059374  37.0437738
  46.2351443  73.2327332  35.6595133  42.7948808  72.7826591  41.9985756
  43.0456847  73.6673601  42.2643332  43.3308357  72.6031192  41.2260848
  52.0079536  81.0853490  34.3415737  51.8725211  81.9305026  34.7700585
  52.5489349  81.2872768  33.5781671  45.4608933  78.6028928  34.9143662
  45.9733454  79.3972179  35.0649227  46.1131646  77.9055219  34.8477264
  47.2703818  81.7194685  36.9966416  47.4470447  82.6412649  36.8087399
  48.0660652  81.4053104  37.4260795  46.5556175  73.7659317  46.8728579
  46.4409690  72.8644574  47.1735678  45.7000692  74.0123013  46.5213395
  48.3935134  83.2372858  42.9976758  48.9442559  83.1089922  42.2253752
  47.5546610  83.5367747  42.6471651  43.4257850  76.9317583  35.6903233
  44.2633072  77.3414591  35.4736941  43.6036118  75.9917025  35.6603427
  55.3222282  74.5992663  31.3787066  54.8068906  75.3697268  31.6175453
  55.0499591  73.9257800  32.0020127  50.6811426  67.0627437  39.8430046
  51.5464423  66.8670246  39.4835935  50.7488935  66.8337789  40.7699403
  60.2956557  77.3525018  33.3140239  59.5185999  77.0136178  32.8695401
  60.9748037  77.3577641  32.6395204  55.1108586  72.4719755  33.2046847
  54.8058721  72.7865905  34.0556990  56.0639028  72.5501175  33.2474180
  53.5555017  78.6309979  34.8539801  53.0276379  77.8962738  34.5413038
  53.0542520  79.4084655  34.6079769  48.2873745  69.2929645  37.2146413
  48.8617497  69.0704827  36.4819606  48.8744727  69.3618340  37.9675014
  57.3453322  75.1803372  38.0210789  57.8585204  75.8133364  38.5232499
  57.9954546  74.5804567  37.6554149  48.6143332  71.3234106  31.2342298
  47.7780644  71.6608793  31.5551573  48.4748102  71.1883086  30.2969435
  51.7007618  76.4490189  27.8574774  50.7934679  76.2179442  28.0565923
  52.1978650  75.6527808  28.0448756  54.6075696  85.1587696  30.7771460
  53.9337395  85.4619393  31.3856418  54.9941518  85.9616777  30.4276917
  54.6069201  74.0544243  35.3971810  55.3541020  74.5665640  35.0878932
  54.8760790  73.7328296  36.2576203  52.8795851  76.5502784  32.3798764
  51.9707070  76.2661817  32.4771234  52.9090935  76.9701862  31.5202071
  58.1115118  80.1609373  36.1489932  57.6577446  79.3200283  36.2055122
  57.4809085  80.7970772  36.4864712  56.5548058  81.9985870  37.0839750
  56.8471032  82.5590927  36.3652115  57.0646678  82.2914431  37.8392909
  43.4484021  74.2708298  36.3613966  43.2508421  73.6777659  35.6365033
  42.8930685  73.9660508  37.0789905  51.4280745  74.1631405  38.4808560
  51.4829355  73.2105241  38.4051036  50.6171947  74.3190844  38.9649858
  52.5771939  78.0911528  29.7186843  52.1391369  77.3747387  29.2592480
  53.3182380  78.3187642  29.1571934  49.3673105  72.7808464  36.2398938
  48.5540971  73.0802635  36.6464131  49.8632099  72.3864153  36.9573421
  51.5181683  82.7766221  38.1733203  51.4757862  83.0027067  37.2441735
  52.4344382  82.5429596  38.3219004  48.8587180  70.3526820  41.8560173
  49.4986559  70.2115579  41.1583137  48.0264710  70.0661333  41.4798775
  49.6347484  79.6529250  37.9695166  50.4288082  79.1579570  37.7677741
  48.9239176  79.1247113  37.6062871  45.9430247  73.7972332  34.0454918
  45.0127835  73.7356787  34.2624881  46.0387719  73.2748285  33.2491560
  45.8615796  70.3227145  36.6333160  46.1222613  71.2372478  36.5242321
  46.6832968  69.8551587  36.7829773  47.3340721  71.7364902  43.8031985
  48.0063775  71.5282264  43.1544634  46.5070508  71.5386988  43.3637217
  53.2366293  68.3626843  45.8197646  52.5894209  69.0616793  45.7262122
  54.0067309  68.7962987  46.1873894  52.8066912  85.3267369  32.9918539
  52.9818667  84.8555412  33.8064162  52.1199700  85.9533135  33.2199800
  53.7623975  79.6039875  39.0381841  53.4273807  79.5640645  39.9339491
  53.2627920  78.9384591  38.5652251  47.7368219  75.0107505  44.5634422
  47.5988017  74.2787744  45.1645961  48.6473142  74.9216405  44.2818610
  56.6983166  76.9495909  29.3118900  56.0812337  76.2242737  29.2151953
  56.2299655  77.7105270  28.9685975  50.3650519  74.7227464  44.0518101
  51.0750138  74.0820656  44.0104720  50.3219828  74.9740359  44.9744282
  49.0779453  71.7092682  45.8713741  48.5416810  71.2583421  46.5235337
  48.4896162  71.8438591  45.1284205  47.3727997  88.4756731  39.7658400
  47.6124595  89.1075256  40.4437418  46.5297193  88.1244771  40.0523759
  48.4881712  71.1681334  28.4340205  47.6111179  71.0470134  28.0702451
  48.9639465  70.3767412  28.1819093  40.0083852  75.9558493  38.5281712
  40.6954892  75.6420223  37.9402727  39.8531981  76.8599858  38.2548963
  44.8118575  70.8448690  42.9566735  44.7276763  70.2374359  42.2217145
  43.9901281  71.3357708  42.9576232  51.8855859  84.2835854  42.1699904
  51.8126030  85.0890825  42.6819208  51.4433252  84.4827820  41.3447925
  51.6745638  83.5207624  35.6802725  50.8913160  84.0629304  35.7740950
  52.3738384  84.0381604  36.0796966  54.3454542  84.1822688  44.3258062
  55.0582514  84.8170153  44.2533964  53.8544571  84.2786554  43.5098064
  56.0672069  78.0873941  35.8975354  55.1328348  78.2075403  35.7280058
  56.2448738  77.1846407  35.6335364  59.4544621  73.9291260  36.4325388
  59.9205073  74.7619251  36.3585691  59.9052121  73.4636241  37.1370647
  57.5220852  80.2735081  33.4311540  57.7980696  80.1591676  34.3405414
  56.6525350  79.8752566  33.3923713  54.1574916  84.5221432  37.0744354
  54.3397310  83.7043088  37.5372106  54.9807902  84.7389124  36.6369244
  54.4917081  83.4489617  34.3359402  55.0204848  82.9382072  33.7229564
  54.7545301  83.1332147  35.2004935  44.9934174  81.4653486  42.0794736
  45.5787611  80.7197174  42.2122640  44.7959012  81.7757443  42.9631400
  47.8472829  84.5004734  37.0957178  47.1783204  84.9850861  36.6121218
  47.7085699  84.7473954  38.0100557  39.5851829  74.0359087  40.7999179
  39.6235928  73.5022677  41.5936297  39.0792121  73.5094292  40.1810156
  51.9878098  86.5348477  43.6939836  52.5396406  86.6980099  44.4588922
  52.3284291  87.1252915  43.0219861  46.9642591  68.8823627  44.2961721
  47.0283917  69.7438458  43.8839119  46.9009711  68.2697629  43.5634080
  46.4394863  70.9546760  47.9434755  47.0666902  70.5723837  48.5572280
  45.5822782  70.7360962  48.3090448  43.2160406  72.7623189  33.8753110
  43.5113847  71.8533867  33.8220164  42.3148442  72.7410928  33.5534113
  55.1246485  84.4830453  40.6803519  54.9997624  83.6820193  40.1714464
  55.7825576  84.9776646  40.1917489  46.7454653  70.8379185  39.8580659
  46.0241239  71.4515153  39.7188132  47.5347909  71.3736950  39.7797305
  49.5480967  68.1733612  46.1321311  50.0715369  68.4195908  46.8947620
  49.3293300  69.0053647  45.7124448  44.9448248  70.4437286  33.9992435
  44.6160954  69.5634665  33.8167541  45.2987618  70.3884955  34.8868825
  54.1927827  82.0792189  38.5087421  54.0452789  81.1508897  38.6894991
  55.0181320  82.1012280  38.0244496  48.0590071  70.7310256  34.3667913
  48.3986143  71.2596177  33.6446521  48.5062191  71.0690662  35.1426480
  57.7961948  82.9020748  39.5952294  58.7208496  82.6963609  39.4576745
  57.6277252  82.6537149  40.5041635  50.7533512  69.1147307  43.8170981
  50.4130332  68.3155120  44.2191661  50.0472518  69.4149018  43.2447814
  51.4049984  66.1996619  42.2698304  52.2276053  65.7257098  42.1477194
  51.6488047  66.9787103  42.7696990  50.0458218  69.2284878  32.5661206
  50.7666581  69.6066131  32.0624923  49.4223522  69.9473755  32.6696184
  54.1889341  69.9330027  33.5019538  54.4052955  70.8154665  33.2008366
  53.7083408  69.5416240  32.7725180  48.9288562  72.8915740  40.0790283
  48.7833143  73.2056043  40.9714564  48.4513766  73.5100640  39.5261181
  57.5857265  83.4206415  34.9514385  57.7594142  82.8552838  34.1988238
  58.0786156  84.2207310  34.7693875  43.4034224  75.4321084  43.0177944
  42.8587693  76.2080892  43.1498218  44.2813574  75.7791889  42.8597065
  50.1921841  68.7632668  35.3958742  50.3137752  67.8349314  35.5949630
  49.9023884  68.7771354  34.4837058  58.5732437  82.7373180  32.0511283
  59.2683342  83.3579872  32.2698598  58.9155587  81.8868531  32.3263661
  44.1900246  74.5590981  45.9108101  43.4481982  74.7073616  46.4972731
  43.8692991  74.8199246  45.0474850  60.4723860  80.1872885  33.5798614
  60.9975184  80.5260158  32.8547934  60.3846213  79.2519901  33.3961749
  52.1343909  84.1006959  45.7088491  52.4431035  83.8556106  46.5811190
  52.9319391  84.3053597  45.2207361  52.1564521  86.2544869  37.9393867
  51.7169511  85.7621247  38.6326724  52.9072638  85.7117836  37.6985943
  44.6356860  82.4456409  37.9418495  45.4614880  82.1460181  37.5617139
  44.2850912  81.6764032  38.3908284  49.6038393  81.7982878  40.0116169
  48.9818402  81.1353583  39.7118397  50.2743260  81.8244010  39.3289817
  42.8365465  80.3642736  38.9007429  41.9997373  79.9364910  38.7191430
  42.8089110  80.5575179  39.8378220  49.1651900  80.3486801  33.4874630
  49.3140020  81.0322265  32.8341302  49.9718344  80.3291891  34.0024085
  51.9062209  71.0296038  46.3595034  51.0365519  71.3229604  46.0877622
  52.1421689  71.6136483  47.0802297  46.9204533  76.3751979  34.4935699
  46.6750575  75.4714309  34.6915909  47.0900448  76.3769129  33.5515177
  46.1900181  72.1080336  31.9921860  45.4969426  72.1824691  31.3361896
  45.9451933  71.3440680  32.5143377  52.6647306  82.8434931  30.9586377
  52.0921273  83.4625119  30.5056849  53.2380099  83.3934293  31.4926299
  55.8844565  83.1272082  32.0894959  56.8175239  83.0617643  32.2927835
  55.7967778  83.9628348  31.6309492  58.5132582  82.4437952  29.0498907
  58.4346214  82.1097815  29.9434665  59.3342249  82.9359720  29.0490379
  53.0494104  74.1795744  28.3002430  53.9953209  74.0501952  28.3690848
  52.6708349  73.4410406  28.7771858  51.2337021  72.1045721  28.2357315
  50.3268477  71.8078833  28.3120028  51.5113002  71.8075539  27.3691601
  42.1514962  73.4252084  38.6856361  41.8317746  72.5717392  38.3930735
  41.6048390  73.6400662  39.4414328  45.9294869  76.1414525  42.4025868
  46.1480879  77.0731633  42.4213901  46.3420643  75.7822499  43.1880671
  50.0035806  68.9632656  28.3769294  50.8654970  69.2887554  28.6365111
  50.1886150  68.1764152  27.8642360  42.0203222  77.0454995  40.6549483
  41.3266693  76.6308948  40.1419437  42.7676213  77.0875532  40.0582902
  43.9339964  76.9773249  38.5315498  43.9110652  77.0760937  37.5797381
  44.2440601  77.8238400  38.8532664  46.5927342  79.0349404  42.6462112
  47.5470596  79.0033347  42.5792044  46.3939866  78.5740028  43.4612338
  47.1826724  77.6050520  45.2132910  48.0019613  78.0994599  45.2367747
  47.4563532  76.6882488  45.1850477  44.9477571  84.5769024  39.6632310
  44.8132039  83.8169425  39.0970308  44.5309633  85.3009924  39.1961099
  56.0836534  79.7605947  28.6708885  56.7872384  79.9655950  29.2866541
  55.3599183  80.3282709  28.9357969  56.9134344  75.5115809  34.7911155
  56.8569546  75.9684360  33.9518788  57.4662687  74.7506493  34.6133998
  48.1046697  85.4738341  39.8750753  47.9879081  86.4183773  39.7729443
  47.2839143  85.1711902  40.2636552  57.9923231  80.1988476  30.7207345
  58.8268835  79.7669675  30.5384820  57.8307574  80.0270490  31.6484240
  57.6469123  76.7020590  32.0863685  57.5917927  76.5364861  31.1452129
  57.0215179  77.4096623  32.2425874  42.4361638  71.9388654  45.9125107
  43.0820502  71.4287608  46.4012332  42.2278790  72.6757336  46.4868532
  50.9565249  66.2028699  31.6649003  50.9443919  67.1470539  31.8217274
  51.8488671  66.0198844  31.3708464  49.1301211  86.1266603  43.0906681
  50.0328458  86.1590213  43.4073176  48.9038581  85.1967054  43.1053017
  50.8854813  84.8797589  39.7516760  49.9350444  84.8799451  39.6381132
  51.1887299  84.1330324  39.2352794  46.7759129  69.0856271  50.0100121
  47.6390591  68.7293076  50.2203446  46.2024540  68.7470166  50.6975525
  59.2884028  92.5221032  36.7420938  58.7248893  92.4310969  35.9737225
  59.1736423  91.7020937  37.2223430  56.8348460  94.0172224  39.5805158
  57.6269752  93.6763048  39.1651457  57.0745110  94.1267199  40.5007311
  64.8683587  96.1892000  32.0535403  64.2171567  96.7746080  31.6669416
  65.6627950  96.7198195  32.1130440  58.7939214  93.2781137  32.4522537
  59.5670090  92.7310124  32.3135413  59.1464613  94.1425386  32.6636998
  60.6324257  94.6057519  45.6589436  60.3414123  95.5103150  45.5436103
  61.2681241  94.6474047  46.3733506  61.5580464  91.9834368  42.2490796
  62.1544036  91.7590390  41.5347759  61.6155435  91.2419113  42.8516244
  61.1305492  89.4373803  30.0840987  61.3831013  88.9155324  29.3224450
  60.1930051  89.2739949  30.1867670  66.3458852  93.8782432  32.5904387
  65.7104685  93.9517058  33.3025291  66.0156259  94.4676031  31.9123466
  60.8501781  91.3401909  32.2865362  60.7338039  90.6646812  32.9546446
  60.9604041  90.8534283  31.4697515  63.1933322  90.8012056  35.9912051
  62.8291529  90.2742677  36.7024972  64.0500438  90.4110525  35.8178536
  62.8338809  85.8301956  30.9873400  63.0013211  86.6982192  31.3543871
  62.6435978  85.9929238  30.0634689  65.5914142  94.2918935  42.6539230
  65.2914865  95.1943974  42.5455037  65.2465201  94.0251118  43.5060383
  59.0426623  90.7432732  38.6875934  58.1177120  90.6108946  38.8953626
  59.2911037  91.5226951  39.1845877  62.8128030  88.2859613  31.9720066
  62.6927655  88.7316664  32.8105547  62.1180618  88.6344931  31.4133604
  56.4035434  90.3866005  39.5219723  56.5327816  90.6400484  40.4359135
  55.7232886  90.9793713  39.2024378  60.5734922 101.0563255  35.6210198
  60.4958951 102.0071080  35.6998678  59.9696565 100.7109128  36.2785124
  68.5113096  88.7581087  32.8000400  69.4230952  88.9908473  32.6248098
  68.0022743  89.3418131  32.2375479  67.1182678  93.7406905  40.1913982
  66.4891540  93.9052619  39.4890050  66.7308340  94.1548515  40.9624946
  70.9971910  94.6761343  37.5458346  70.3122948  95.0560244  36.9955379
  71.0815759  95.2856669  38.2790293  62.6710640  93.4781313  37.4564067
  63.1348985  93.7569016  36.6668689  62.4067438  92.5764758  37.2737158
  59.5634721  93.0252795  40.3943830  60.1336078  93.4540063  39.7561315
  60.1542833  92.7435379  41.0928016  61.6079526  89.6004465  34.2653632
  62.3103569  90.0525509  34.7327558  61.2760154  88.9588284  34.8933525
  55.3504860  87.8588018  39.5670766  54.5603914  88.1145547  39.0910876
  55.8416107  88.6736356  39.6722806  69.3668669  95.1993257  42.3176046
  70.1886113  94.7973445  42.0358728  69.3631072  95.0961491  43.2692162
  57.3019605  88.2232597  36.5254242  56.5050769  88.3351292  37.0437738
  57.0745197  88.5619250  35.6595133  63.1325273  94.7477301  44.4736757
  63.1969705  95.2097708  45.3094929  62.4236197  94.1174665  44.6019067
  53.6342563  88.1118509  41.9985756  53.8850601  88.9965518  42.2643332
  54.1702111  87.9323110  41.2260848  77.4574663  91.5432006  38.6661018
  76.7038371  90.9739404  38.5105022  77.5922204  91.5094670  39.6131653
  62.8473291  96.4145408  34.3415737  62.7118965  97.2596944  34.7700585
  63.3883103  96.6164686  33.5781671  56.3002688  93.9320846  34.9143662
  56.8127209  94.7264096  35.0649227  56.9525401  93.2347137  34.8477264
  58.1097573  97.0486602  36.9966416  58.2864201  97.9704567  36.8087399
  58.9054406  96.7345022  37.4260795  57.3949929  89.0951234  46.8728579
  57.2803444  88.1936491  47.1735678  56.5394447  89.3414931  46.5213395
  64.4741767  97.0368975  48.4716079  64.0305621  96.2505353  48.1536984
  65.1358981  97.2248125  47.8059970  59.2328888  98.5664776  42.9976758
  59.7836313  98.4381840  42.2253752  58.3940364  98.8659665  42.6471651
  66.5723005  97.3171774  46.4997481  66.5541480  98.1380656  46.0077750
  67.4942925  97.1925850  46.7247622  54.2651605  92.2609500  35.6903233
  55.1026827  92.6706509  35.4736941  54.4429872  91.3208943  35.6603427
  66.1616037  89.9284581  31.3787066  65.6462660  90.6989186  31.6175453
  65.8893345  89.2549717  32.0020127  63.7463148  84.7734282  36.4372304
  62.8904744  84.3841132  36.2577943  64.1590100  84.8526243  35.5772090
  61.5205180  82.3919355  39.8430046  62.3858177  82.1962163  39.4835935
  61.5882689  82.1629707  40.7699403  71.1350311  92.6816936  33.3140239
  70.3579754  92.3428095  32.8695401  71.8141792  92.6869559  32.6395204
  65.9502340  87.8011673  33.2046847  65.6452476  88.1157822  34.0556990
  66.9032782  87.8793093  33.2474180  64.3948772  93.9601896  34.8539801
  63.8670133  93.2254656  34.5413038  63.8936275  94.7376573  34.6079769
  59.1267499  84.6221563  37.2146413  59.7011251  84.3996744  36.4819606
  59.7138482  84.6910257  37.9675014  59.4537087  86.6526024  31.2342298
  58.6174399  86.9900710  31.5551573  59.3141856  86.5175004  30.2969435
  61.4290167  81.4962812  35.9421482  60.7754580  81.1811829  35.3178097
  61.3870641  80.8738552  36.6681305  62.5401372  91.7782107  27.8574774
  61.6328434  91.5471360  28.0565923  63.0372404  90.9819726  28.0448756
  65.4469451 100.4879614  30.7771460  64.7731150 100.7911311  31.3856418
  65.8335273 101.2908694  30.4276917  65.4462955  89.3836161  35.3971810
  66.1934774  89.8957558  35.0878932  65.7154545  89.0620214  36.2576203
  63.7189605  91.8794702  32.3798764  62.8100825  91.5953734  32.4771234
  63.7484689  92.2993780  31.5202071  68.9508873  95.4901291  36.1489932
  68.4971200  94.6492201  36.2055122  68.3202840  96.1262689  36.4864712
  67.3941812  97.3277788  37.0839750  67.6864787  97.8882845  36.3652115
  67.9040433  97.6206349  37.8392909  54.2877776  89.6000216  36.3613966
  54.0902176  89.0069576  35.6365033  53.7324440  89.2952426  37.0789905
  62.2674500  89.4923322  38.4808560  62.3223109  88.5397159  38.4051036
  61.4565702  89.6482761  38.9649858  63.4165693  93.4203445  29.7186843
  62.9785123  92.7039304  29.2592480  64.1576134  93.6479560  29.1571934
  60.2066859  88.1100382  36.2398938  59.3934725  88.4094552  36.6464131
  60.7025854  87.7156071  36.9573421  62.3575437  98.1058139  38.1733203
  62.3151616  98.3318985  37.2441735  63.2738136  97.8721513  38.3219004
  71.5338808  91.6960642  35.7763161  71.3956707  91.8862238  34.8484351
  71.1775027  92.4580025  36.2331212  71.5608188  93.7637169  40.7874433
  71.9944694  93.6712458  41.6357487  72.2739768  93.7394670  40.1494449
  60.4741238  94.9821168  37.9695166  61.2681837  94.4871488  37.7677741
  59.7632931  94.4539031  37.6062871  65.2936083  97.3639263  42.3207533
  65.3473105  97.9330200  43.0885249  64.4250864  97.5341148  41.9561571
  56.7824002  89.1264250  34.0454918  55.8521590  89.0648705  34.2624881
  56.8781474  88.6040202  33.2491560  56.7009551  85.6519062  36.6333160
  56.9616368  86.5664396  36.5242321  57.5226723  85.1843505  36.7829773
  58.1734476  87.0656820  43.8031985  58.8457529  86.8574182  43.1544634
  57.3464262  86.8678906  43.3637217  72.4223737  93.8060870  43.3207318
  72.6159627  94.7106680  43.5666593  72.3224355  93.3468289  44.1545903
  67.4838846  93.9567613  48.8948199  67.3324352  93.7278164  47.9778283
  67.4743525  94.9138214  48.9079544  63.0512514  95.5550190  41.6493003
  62.9123600  95.1868974  42.5218941  62.2627110  96.0697829  41.4776961
  63.6460666 100.6559286  32.9918539  63.8212422 100.1847330  33.8064162
  62.9593454 101.2825053  33.2199800  64.6017729  94.9331793  39.0381841
  64.2667562  94.8932563  39.9339491  64.1021675  94.2676508  38.5652251
  58.5761973  90.3399423  44.5634422  58.4381771  89.6079661  45.1645961
  59.4866897  90.2508323  44.2818610  67.5376921  92.2787827  29.3118900
  66.9206092  91.5534655  29.2151953  67.0693409  93.0397187  28.9685975
  69.1931053  96.9886735  46.9724681  69.1343599  96.3045955  46.3055264
  69.5950571  97.7305725  46.5205307  58.2121751 103.8048649  39.7658400
  58.4518350 104.4367173  40.4437418  57.3690948 103.4536689  40.0523759
  59.3275467  86.4973251  28.4340205  58.4504933  86.3762052  28.0702451
  59.8033220  85.7059330  28.1819093  69.1948460  94.9526319  45.2038660
  68.3075239  94.6152241  45.3265059  69.7647011  94.2209350  45.4407426
  50.8477607  91.2850411  38.5281712  51.5348647  90.9712141  37.9402727
  50.6925736  92.1891776  38.2548963  55.6512329  86.1740607  42.9566735
  55.5670518  85.5666277  42.2217145  54.8295036  86.6649626  42.9576232
  62.7249613  99.6127772  42.1699904  62.6519785 100.4182743  42.6819208
  62.2827006  99.8119737  41.3447925  62.5139393  98.8499542  35.6802725
  61.7306915  99.3921222  35.7740950  63.2132138  99.3673521  36.0796966
  65.1848297  99.5114606  44.3258062  65.8976269 100.1462070  44.2533964
  64.6938325  99.6078472  43.5098064  66.9065824  93.4165858  35.8975354
  65.9722102  93.5367321  35.7280058  67.0842492  92.5138325  35.6335364
  70.2938375  89.2583178  36.4325388  70.7598827  90.0911169  36.3585691
  70.7445876  88.7928159  37.1370647  60.2360210  97.2609049  45.1463633
  60.9369670  97.8945532  45.2993027  59.7655325  97.6023781  44.3859272
  68.3614606  95.6026999  33.4311540  68.6374450  95.4883593  34.3405414
  67.4919105  95.2044484  33.3923713  64.9968670  99.8513350  37.0744354
  65.1791065  99.0335006  37.5372106  65.8201656 100.0681042  36.6369244
  65.3310836  98.7781535  34.3359402  65.8598602  98.2673989  33.7229564
  65.5939055  98.4624065  35.2004935  55.8327928  96.7945404  42.0794736
  56.4181365  96.0489092  42.2122640  55.6352767  97.1049361  42.9631400
  58.6866584  99.8296651  37.0957178  58.0176959 100.3142779  36.6121218
  58.5479453 100.0765872  38.0100557  50.4245583  89.3651004  40.7999179
  50.4629683  88.8314595  41.5936297  49.9185876  88.8386210  40.1810156
  62.8271852 101.8640395  43.6939836  63.3790160 102.0272016  44.4588922
  63.1678046 102.4544833  43.0219861  67.6782726  96.6901653  49.5488491
  68.2222630  97.3031611  49.0543446  67.0969571  97.2481231  50.0655504
  54.0554161  88.0915106  33.8753110  54.3507602  87.1825785  33.8220164
  53.1542196  88.0702846  33.5534113  65.9640239  99.8122371  40.6803519
  65.8391379  99.0112110  40.1714464  66.6219331 100.3068564  40.1917489
  57.5848408  86.1671103  39.8580659  56.8634993  86.7807071  39.7188132
  58.3741663  86.7028868  39.7797305  68.0275148  97.6131391  42.3083069
  67.0805483  97.4936742  42.2361395  68.3757921  96.7253889  42.3909330
  55.7842002  85.7729204  33.9992435  55.4554708  84.8926583  33.8167541
  56.1381373  85.7176873  34.8868825  65.0321581  97.4084107  38.5087421
  64.8846544  96.4800814  38.6894991  65.8575075  97.4304198  38.0244496
  58.8983825  86.0602174  34.3667913  59.2379898  86.5888095  33.6446521
  59.3455946  86.3982580  35.1426480  68.6355703  98.2312666  39.5952294
  69.5602250  98.0255527  39.4576745  68.4671006  97.9829067  40.5041635
  60.8851973  84.5576795  32.5661206  61.6060335  84.9358048  32.0624923
  60.2617277  85.2765672  32.6696184  65.0283095  85.2621944  33.5019538
  65.2446710  86.1446582  33.2008366  64.5477163  84.8708158  32.7725180
  59.7682317  88.2207658  40.0790283  59.6226898  88.5347961  40.9714564
  59.2907520  88.8392558  39.5261181  68.4251019  98.7498333  34.9514385
  68.5987897  98.1844755  34.1988238  68.9179910  99.5499228  34.7693875
  54.2427979  90.7613002  43.0177944  53.6981447  91.5372810  43.1498218
  55.1207329  91.1083807  42.8597065  61.0315596  84.0924586  35.3958742
  61.1531507  83.1641232  35.5949630  60.7417638  84.1063272  34.4837058
  63.9006786  81.7779496  38.5325462  63.9228483  81.8418829  37.5777442
  64.3174845  80.9384005  38.7265968  74.2790410  91.5134756  36.5704685
  74.7221556  90.7642081  36.1723808  73.4016921  91.5044892  36.1878417
  69.4126192  98.0665097  32.0511283  70.1077096  98.6871790  32.2698598
  69.7549342  97.2160449  32.3263661  55.0294001  89.8882898  45.9108101
  54.2875737  90.0365534  46.4972731  54.7086745  90.1491164  45.0474850
  71.3117615  95.5164803  33.5798614  71.8368939  95.8552076  32.8547934
  71.2239967  94.5811818  33.3961749  62.9737663  99.4298877  45.7088491
  63.2824790  99.1848023  46.5811190  63.7713146  99.6345515  45.2207361
  62.9958276 101.5836786  37.9393867  62.5563266 101.0913165  38.6326724
  63.7466392 101.0409754  37.6985943  55.4750615  97.7748327  37.9418495
  56.3008634  97.4752099  37.5617139  55.1244667  97.0055950  38.3908284
  60.4432148  97.1274795  40.0116169  59.8212157  96.4645500  39.7118397
  61.1137015  97.1535927  39.3289817  53.6759220  95.6934654  38.9007429
  52.8391128  95.2656828  38.7191430  53.6482865  95.8867097  39.8378220
  71.0011521  96.1497707  48.8849812  70.2107065  96.1321845  48.3454312
  70.7644875  96.6886000  49.6398849  60.0045655  95.6778719  33.4874630
  60.1533775  96.3614183  32.8341302  60.8112098  95.6583809  34.0024085
  72.6227593  95.4187114  46.4424562  72.3312401  95.7817095  47.2788023
  72.0099724  94.7054123  46.2637894  73.8223275  92.9839994  38.9627132
  74.6570166  93.4229798  39.1264693  73.9582404  92.5078647  38.1435378
  57.7598288  91.7043896  34.4935699  57.5144330  90.8006226  34.6915909
  57.9294202  91.7061047  33.5515177  57.0293935  87.4372254  31.9921860
  56.3363180  87.5116609  31.3361896  56.7845687  86.6732597  32.5143377
  63.5041060  98.1726849  30.9586377  62.9315027  98.7917036  30.5056849
  64.0773854  98.7226211  31.4926299  66.7238320  98.4563999  32.0894959
  67.6568993  98.3909561  32.2927835  66.6361533  99.2920266  31.6309492
  69.3526337  97.7729870  29.0498907  69.2739968  97.4389733  29.9434665
  70.1736003  98.2651637  29.0490379  63.8887859  89.5087662  28.3002430
  64.8346963  89.3793870  28.3690848  63.5102104  88.7702324  28.7771858
  77.8681078  91.7007616  41.3981262  78.5984466  91.4392904  41.9588966
  77.2588023  90.9636338  41.4383330  62.0730776  87.4337638  28.2357315
  61.1662231  87.1370751  28.3120028  62.3506757  87.1367456  27.3691601
  52.9908716  88.7544002  38.6856361  52.6711500  87.9009310  38.3930735
  52.4442144  88.9692580  39.4414328  56.7688624  91.4706443  42.4025868
  56.9874633  92.4023550  42.4213901  57.1814398  91.1114417  43.1880671
  63.6892841  81.9774528  34.3901556  62.8793570  81.6321613  34.7656802
  64.3777258  81.6682072  34.9789168  65.6183390  81.0552575  36.0125853
  66.1714428  81.4748028  36.6715876  65.8553476  80.1288323  36.0548809
  60.8429560  84.2924573  28.3769294  61.7048724  84.6179472  28.6365111
  61.0279905  83.5056069  27.8642360  52.8596976  92.3746913  40.6549483
  52.1660448  91.9600866  40.1419437  53.6069967  92.4167450  40.0582902
  54.7733719  92.3065167  38.5315498  54.7504407  92.4052854  37.5797381
  55.0834355  93.1530318  38.8532664  57.4321097  94.3641322  42.6462112
  58.3864350  94.3325264  42.5792044  57.2333620  93.9031946  43.4612338
  58.0220479  92.9342438  45.2132910  58.8413368  93.4286517  45.2367747
  58.2957286  92.0174406  45.1850477  67.7787075  85.3253190  34.5760865
  66.8912930  85.6102841  34.3581060  68.1941064  85.1646954  33.7288142
  55.7871325  99.9060941  39.6632310  55.6525793  99.1461342  39.0970308
  55.3703388 100.6301841  39.1961099  66.9230288  95.0897865  28.6708885
  67.6266138  95.2947867  29.2866541  66.1992937  95.6574627  28.9357969
  67.7528099  90.8407726  34.7911155  67.6963300  91.2976278  33.9518788
  68.3056441  90.0798411  34.6133998  71.5632905  86.6297458  35.6161275
  71.3069839  86.2294094  36.4469483  70.9385773  87.3441252  35.4911414
  58.9440451 100.8030258  39.8750753  58.8272835 101.7475691  39.7729443
  58.1232897 100.5003820  40.2636552  68.8316986  95.5280394  30.7207345
  69.6662590  95.0961593  30.5384820  68.6701329  95.3562408  31.6484240
  68.4862878  92.0312507  32.0863685  68.4311682  91.8656779  31.1452129
  67.8608933  92.7388540  32.2425874  53.2755393  87.2680572  45.9125107
  53.9214257  86.7579526  46.4012332  53.0672544  88.0049253  46.4868532
  61.7959003  81.5320616  31.6649003  61.7837673  82.4762456  31.8217274
  62.6882425  81.3490762  31.3708464  59.9694965 101.4558520  43.0906681
  60.8722212 101.4882131  43.4073176  59.7432335 100.5258971  43.1053017
  61.7248567 100.2089507  39.7516760  60.7744198 100.2091368  39.6381132
  62.0281054  99.4622241  39.2352794  77.4601261 106.0450045  40.8162522
  78.0979671 105.9256793  40.1125862  77.3422104 106.9930889  40.8750474
  74.2690967 105.9977473  40.7524047  73.9309479 105.8818538  39.8644582
  75.1380735 105.5968638  40.7325053  70.1277783 107.8512950  36.7420938
  69.5642648 107.7602887  35.9737225  70.0130178 107.0312854  37.2223430
  74.7510750 107.1512325  46.7110252  74.7399391 106.7565123  45.8390756
  74.9131390 106.4178398  47.3044024  67.6742215 109.3464141  39.5805158
  68.4663507 109.0054966  39.1651457  67.9138865 109.4559116  40.5007311
  69.6332969 108.6073055  32.4522537  70.4063845 108.0602042  32.3135413
  69.9858368 109.4717304  32.6636998  71.4718011 109.9349437  45.6589436
  71.1807877 110.8395068  45.5436103  72.1074996 109.9765965  46.3733506
  72.3974218 107.3126285  42.2490796  72.9937790 107.0882308  41.5347759
  72.4549190 106.5711031  42.8516244  71.9699247 104.7665721  30.0840987
  72.2224767 104.2447242  29.3224450  71.0323806 104.6031866  30.1867670
  77.0142529 103.7701499  37.8915730  77.8005619 103.3520922  37.5406147
  77.2781234 104.6747591  38.0597378  82.4150956 103.7076732  38.7948709
  83.1476128 103.1375949  39.0286538  81.6590312 103.3198333  39.2355214
  71.6895535 106.6693827  32.2865362  71.5731793 105.9938730  32.9546446
  71.7997795 106.1826201  31.4697515  74.0327076 106.1303974  35.9912051
  73.6685283 105.6034595  36.7024972  74.8894192 105.7402443  35.8178536
  79.9376377  97.4198306  43.2543317  79.6059702  98.2893717  43.0304532
  79.3421990  97.1034590  43.9337348  73.6732563 101.1593874  30.9873400
  73.8406966 102.0274110  31.3543871  73.4829732 101.3221155  30.0634689
  69.8820378 106.0724649  38.6875934  68.9570874 105.9400863  38.8953626
  70.1304791 106.8518869  39.1845877  79.8305040 102.1393393  40.3336667
  78.9221917 102.0708801  40.0395428  79.7792636 102.6165338  41.1618493
  73.6521784 103.6151531  31.9720066  73.5321409 104.0608582  32.8105547
  72.9574372 103.9636849  31.4133604  67.2429189 105.7157923  39.5219723
  67.3721570 105.9692402  40.4359135  66.5626640 106.3085631  39.2024378
  73.9045906 103.5583038  48.2771564  73.1279240 104.1176958  48.2674429
  74.5436469 104.0439821  48.7986435  81.6966687 100.3409831  42.1114541
  81.0541067 100.6342364  41.4654336  81.1921615 100.2262751  42.9167738
  79.3506850 104.0873004  32.8000400  80.2624706 104.3200391  32.6248098
  78.8416497 104.6710048  32.2375479  72.1592278 106.3668492  47.8389531
  72.9006963 106.9053536  47.5624355  71.4529264 106.9934780  47.9961083
  77.6347618 108.5097632  46.4361693  78.0430974 108.0680043  45.6916325
  76.9124879 107.9350260  46.6895886  73.9878688 103.4470239  43.8095250
  74.8339883 103.8709652  43.9529899  73.9277326 102.7903863  44.5033813
  77.1378133 101.1074607  45.4676424  76.8939065 101.8616668  44.9310699
  77.4138064 101.4859955  46.3023671  76.6942825 100.2631040  41.0490261
  75.8327304 100.5612294  41.3406999  76.7205260 100.4801439  40.1171294
  73.5104394 108.8073231  37.4564067  73.9742740 109.0860934  36.6668689
  73.2461192 107.9056675  37.2737158  70.4028475 108.3544712  40.3943830
  70.9729833 108.7831981  39.7561315  70.9936587 108.0727297  41.0928016
  72.4473280 104.9296383  34.2653632  73.1497324 105.3817427  34.7327558
  72.1153909 104.2880202  34.8933525  70.8953642 103.5208140  48.6404841
  70.2652303 104.2024421  48.8740238  70.7889730 103.4091221  47.6957980
  66.1898614 103.1879936  39.5670766  65.3997668 103.4437464  39.0910876
  66.6809862 104.0028274  39.6722806  68.1413360 103.5524515  36.5254242
  67.3444523 103.6643209  37.0437738  67.9138952 103.8911167  35.6595133
  73.9719027 110.0769218  44.4736757  74.0363460 110.5389625  45.3094929
  73.2629951 109.4466583  44.6019067  64.4736317 103.4410426  41.9985756
  64.7244356 104.3257436  42.2643332  65.0095866 103.2615028  41.2260848
  70.1734385  97.8228906  51.0030093  69.7801330  97.2695104  51.6777737
  70.9900525  98.1339484  51.3936610  67.1396442 109.2612764  34.9143662
  67.6520963 110.0556014  35.0649227  67.7919155 108.5639054  34.8477264
  68.9491327 112.3778520  36.9966416  69.1257955 113.2996485  36.8087399
  69.7448161 112.0636939  37.4260795  73.0902346  99.2386785  48.5950349
  73.8312059  99.8393938  48.5154812  73.3220269  98.4964422  48.0368392
  68.2343684 104.4243152  46.8728579  68.1197199 103.5228409  47.1735678
  67.3788201 104.6706849  46.5213395  73.8689814 110.1607822  47.3420989
  74.4018150 109.3996110  47.1120297  73.3403895 109.8681473  48.0845143
  77.0359509  95.2667888  42.8714631  76.6923778  96.1569529  42.7953741
  77.4038471  95.0769545  42.0084216  65.1045359 107.5901418  35.6903233
  65.9420581 107.9998426  35.4736941  65.2823627 106.6500860  35.6603427
  77.0009791 105.2576499  31.3787066  76.4856415 106.0281103  31.6175453
  76.7287100 104.5841635  32.0020127  74.5856902 100.1026200  36.4372304
  73.7298499  99.7133050  36.2577943  74.9983854 100.1818160  35.5772090
  76.1156049  97.6372543  40.8363864  75.6120845  97.6002678  40.0231669
  76.4086656  98.5465285  40.8960521  72.3598935  97.7211272  39.8430046
  73.2251932  97.5254081  39.4835935  72.4276444  97.4921624  40.7699403
  76.7896095 103.1303591  33.2046847  76.4846230 103.4449740  34.0556990
  77.7426537 103.2085011  33.2474180  75.2342526 109.2893814  34.8539801
  74.7063888 108.5546574  34.5413038  74.7330029 110.0668490  34.6079769
  69.9661254  99.9513480  37.2146413  70.5405006  99.7288662  36.4819606
  70.5532236 100.0202175  37.9675014  79.0240831 105.8387207  38.0210789
  79.5372713 106.4717199  38.5232499  79.6742055 105.2388403  37.6554149
  70.2930841 101.9817941  31.2342298  69.4568153 102.3192628  31.5551573
  70.1535611 101.8466921  30.2969435  72.2683922  96.8254729  35.9421482
  71.6148334  96.5103746  35.3178097  72.2264396  96.2030470  36.6681305
  75.5021662 103.3136663  40.2669130  74.5844223 103.5351610  40.1090818
  75.9181806 103.3882973  39.4080837  76.2856710 104.7128079  35.3971810
  77.0328529 105.2249476  35.0878932  76.5548299 104.3912131  36.2576203
  74.5583360 107.2086619  32.3798764  73.6494579 106.9245652  32.4771234
  74.5878444 107.6285698  31.5202071  78.7335547 101.7485195  37.3790599
  77.9958304 101.2362581  37.7100842  78.9862320 101.3085576  36.5673876
  78.8347174  94.5261447  37.9732368  79.1406051  93.6658810  37.6858284
  79.5599779  95.1179067  37.7731362  65.1271530 104.9292133  36.3613966
  64.9295930 104.3361494  35.6365033  64.5718194 104.6244344  37.0789905
  73.1068254 104.8215240  38.4808560  73.1616864 103.8689076  38.4051036
  72.2959456 104.9774679  38.9649858  71.0460614 103.4392300  36.2398938
  70.2328479 103.7386470  36.6464131  71.5419608 103.0447988  36.9573421
  76.6434826 103.9034124  45.0713832  76.9984213 104.1305597  45.9308298
  77.2906957 104.2352501  44.4491088  70.5374689 101.0110655  41.8560173
  71.1774068 100.8699414  41.1583137  69.7052219 100.7245169  41.4798775
  71.3134993 110.3113086  37.9695166  72.1075591 109.8163406  37.7677741
  70.6026685 109.7830949  37.6062871  67.6217756 104.4556167  34.0454918
  66.6915344 104.3940623  34.2624881  67.7175228 103.9332120  33.2491560
  67.5403305 100.9810980  36.6333160  67.8010122 101.8956313  36.5242321
  68.3620477 100.5135423  36.7829773  69.0128230 102.3948737  43.8031985
  69.6851284 102.1866099  43.1544634  68.1858017 102.1970823  43.3637217
  74.9153802  99.0210678  45.8197646  74.2681718  99.7200628  45.7262122
  75.6854818  99.4546822  46.1873894  75.0917937 106.8591443  43.8794465
  76.0209997 107.0102603  43.7063433  74.6708967 106.9475464  43.0243112
  73.8906269 110.8842108  41.6493003  73.7517354 110.5160892  42.5218941
  73.1020865 111.3989747  41.4776961  75.4411484 110.2623710  39.0381841
  75.1061316 110.2224480  39.9339491  74.9415429 109.5968426  38.5652251
  69.4155728 105.6691340  44.5634422  69.2775526 104.9371579  45.1645961
  70.3260651 105.5800240  44.2818610  72.0438028 105.3811300  44.0518101
  72.7537647 104.7404492  44.0104720  72.0007337 105.6324194  44.9744282
  70.7566962 102.3676517  45.8713741  70.2204319 101.9167256  46.5235337
  70.1683671 102.5022426  45.1284205  70.1669221 101.8265169  28.4340205
  69.2898688 101.7053970  28.0702451  70.6426974 101.0351247  28.1819093
  61.6871361 106.6142329  38.5281712  62.3742401 106.3004059  37.9402727
  61.5319490 107.5183693  38.2548963  66.4906084 101.5032525  42.9566735
  66.4064272 100.8958195  42.2217145  65.6688790 101.9941543  42.9576232
  76.6629797  99.9886089  38.3236931  77.1598497  99.2356051  38.0038001
  75.8916779 100.0250405  37.7580140  73.2464766 102.1303472  38.0508615
  72.8762554 101.5774512  38.7389521  73.7423859 101.5261605  37.4983615
  81.1332129 104.5875095  36.4325388  81.5992582 105.4203087  36.3585691
  81.5839630 104.1220077  37.1370647  79.1048792  96.9555682  40.4716289
  78.1911872  97.1859909  40.6398496  79.5341894  97.0394126  41.3230322
  78.8755251 105.1445574  42.9716183  78.2226701 105.3921482  42.3168636
  79.2535631 104.3309712  42.6378661  74.9242824 105.8865385  49.4582220
  74.2483461 105.7859515  50.1284596  75.7470458 105.7304599  49.9218218
  66.6721683 112.1237322  42.0794736  67.2575120 111.3781010  42.2122640
  66.4746521 112.4341278  42.9631400  61.2639338 104.6942922  40.7999179
  61.3023437 104.1606513  41.5936297  60.7579630 104.1678127  40.1810156
  68.6430100  99.5407462  44.2961721  68.7071426 100.4022293  43.8839119
  68.5797220  98.9281464  43.5634080  68.1182372 101.6130595  47.9434755
  68.7454411 101.2307672  48.5572280  67.2610291 101.3944797  48.3090448
  64.8947915 103.4207024  33.8753110  65.1901356 102.5117703  33.8220164
  63.9935951 103.3994764  33.5534113  68.4242162 101.4963021  39.8580659
  67.7028748 102.1098988  39.7188132  69.2135418 102.0320786  39.7797305
  71.2268476  98.8317447  46.1321311  71.7502877  99.0779744  46.8947620
  71.0080809  99.6637482  45.7124448  66.6235757 101.1021122  33.9992435
  66.2948463 100.2218501  33.8167541  66.9775127 101.0468790  34.8868825
  69.7377580 101.3894092  34.3667913  70.0773652 101.9180013  33.6446521
  70.1849700 101.7274498  35.1426480  72.4321021  99.7731142  43.8170981
  72.0917841  98.9738955  44.2191661  71.7260027 100.0732853  43.2447814
  73.0837493  96.8580455  42.2698304  73.9063562  96.3840933  42.1477194
  73.3275556  97.6370938  42.7696990  71.7245727  99.8868713  32.5661206
  72.4454090 100.2649966  32.0624923  71.1011031 100.6057590  32.6696184
  75.8676850 100.5913862  33.5019538  76.0840464 101.4738500  33.2008366
  75.3870917 100.2000076  32.7725180  70.6076071 103.5499575  40.0790283
  70.4620652 103.8639878  40.9714564  70.1301275 104.1684476  39.5261181
  72.4672454 100.5402123  40.1271172  72.4534023  99.6443217  39.7903470
  73.1844882 100.5472787  40.7609458  74.3198585 100.9739464  42.1724300
  74.0616363 101.8956534  42.1708630  73.7883625 100.5769898  42.8624764
  65.0821733 106.0904920  43.0177944  64.5375202 106.8664728  43.1498218
  65.9601083 106.4375724  42.8597065  71.8709350  99.4216504  35.3958742
  71.9925261  98.4933150  35.5949630  71.5811392  99.4355190  34.4837058
  74.7400541  97.1071414  38.5325462  74.7622237  97.1710747  37.5777442
  75.1568600  96.2675923  38.7265968  65.8687755 105.2174816  45.9108101
  65.1269491 105.3657451  46.4972731  65.5480500 105.4783082  45.0474850
  71.2825902 112.4566713  40.0116169  70.6605911 111.7937418  39.7118397
  71.9530769 112.4827845  39.3289817  64.5152974 111.0226571  38.9007429
  63.6784882 110.5948746  38.7191430  64.4876619 111.2159015  39.8378220
  71.3550430 100.9348501  49.6048675  71.4038585 101.8110624  49.2226445
  71.8972944 100.3925894  49.0320318  70.8439409 111.0070636  33.4874630
  70.9927529 111.6906101  32.8341302  71.6505853 110.9875726  34.0024085
  79.2506913 104.3113019  47.5141847  80.1516776 104.1719484  47.2225845
  79.3254887 104.4767473  48.4540025  73.5849718 101.6879873  46.3595034
  72.7153028 101.9813439  46.0877622  73.8209198 102.2720318  47.0802297
  68.5992042 107.0335814  34.4935699  68.3538084 106.1298144  34.6915909
  68.7687957 107.0352964  33.5515177  76.2888752  97.9059490  43.8760454
  76.8070696  98.6420517  43.5506943  75.9343885  98.2123484  44.7107213
  67.8687690 102.7664172  31.9921860  67.1756935 102.8408527  31.3361896
  67.6239441 102.0024515  32.5143377  76.5401346  94.3259773  39.3961351
  76.8203100  93.6582962  40.0221777  77.3251953  94.5188868  38.8836015
  80.4110204 102.7477407  43.1432926  81.3627627 102.8475505  43.1645150
  80.2413655 101.9555675  43.6531010  78.4324584  99.8332990  43.3292327
  77.8374516 100.1138003  42.6338815  78.1474281 100.3226891  44.1009068
  74.7281613 104.8379580  28.3002430  75.6740718 104.7085788  28.3690848
  74.3495858 104.0994241  28.7771858  83.0392771 102.7594570  42.3033509
  82.5231819 101.9753027  42.1163438  83.9232719 102.4313287  42.4680028
  80.7003498  96.5035586  38.2629321  80.5028319  96.1950674  39.1472653
  81.3103203  97.2297224  38.3927251  74.6120306 108.8897326  49.7603086
  75.5323315 109.0675925  49.9543133  74.5769889 107.9453371  49.6082786
  72.9124530 102.7629556  28.2357315  72.0055986 102.4662669  28.3120028
  73.1900511 102.4659374  27.3691601  63.8302471 104.0835919  38.6856361
  63.5105255 103.2301228  38.3930735  63.2835899 104.2984497  39.4414328
  67.6082378 106.7998360  42.4025868  67.8268388 107.7315468  42.4213901
  68.0208152 106.4406335  43.1880671  74.5286596  97.3066446  34.3901556
  73.7187324  96.9613531  34.7656802  75.2171013  96.9973989  34.9789168
  76.4577144  96.3844492  36.0125853  77.0108183  96.8039946  36.6715876
  76.6947231  95.4580241  36.0548809  72.4810243 102.3731566  51.7928617
  72.3806970 103.3225923  51.7240708  72.2631786 102.0449805  50.9204687
  71.6823315  99.6216491  28.3769294  72.5442479  99.9471389  28.6365111
  71.8673659  98.8347987  27.8642360  63.6990731 107.7038831  40.6549483
  63.0054202 107.2892784  40.1419437  64.4463722 107.7459367  40.0582902
  79.8355951  98.4945018  35.5204517  79.2554620  99.1529822  35.1382569
  79.5691884  97.6722362  35.1091934  78.2859518  97.8950075  37.7225837
  78.7859296  98.0066610  36.9140156  78.9295126  97.5911128  38.3626646
  72.3441514 105.8028705  50.6093678  71.8608595 106.6029065  50.8157567
  72.4302453 105.8136650  49.6561122  65.6127473 107.6357085  38.5315498
  65.5898161 107.7344772  37.5797381  65.9228110 108.4822235  38.8532664
  68.2714851 109.6933240  42.6462112  69.2258105 109.6617182  42.5792044
  68.0727375 109.2323863  43.4612338  68.8614233 108.2634356  45.2132910
  69.6807122 108.7578434  45.2367747  69.1351041 107.3466324  45.1850477
  78.6180829 100.6545108  34.5760865  77.7306684 100.9394759  34.3581060
  79.0334818 100.4938871  33.7288142  81.9695366 100.6791629  38.2915204
  82.7455756 101.1688081  38.5639821  81.2443500 101.1049683  38.7487074
  84.4067924 101.3919248  39.3489145  85.0012415 101.1514984  38.6382453
  84.4794508 100.6726379  39.9762681  78.5921853 106.1699644  34.7911155
  78.5357055 106.6268195  33.9518788  79.1450196 105.4090329  34.6133998
  82.4026659 101.9589376  35.6161275  82.1463593 101.5586011  36.4469483
  81.7779527 102.6733170  35.4911414  64.1149147 102.5972490  45.9125107
  64.7608011 102.0871444  46.4012332  63.9066299 103.3341171  46.4868532
  72.6352758  96.8612534  31.6649003  72.6231428  97.8054374  31.8217274
  73.5276180  96.6782680  31.3708464  76.4504877  93.4555311  35.9194940
  75.6837273  92.9013797  36.0651622  76.8615582  93.5277180  36.7809091
  68.4546638  99.7440107  50.0100121  69.3178100  99.3876911  50.2203446
  67.8812049  99.4054001  50.6975525  20.5541979   7.5114859  33.4355559
  20.5430620   7.1167658  32.5636063  20.7162618   6.7780932  34.0289330
  17.2749240  10.2951971  32.3834743  16.9839106  11.1997602  32.2681409
  17.9106224  10.3368499  33.0978812  22.2339125   9.9813387  29.3784537
  21.9339848  10.8838425  29.2700344  21.8890185   9.7145570  30.2305689
  19.7077135   3.9185572  35.0016871  18.9310469   4.4779493  34.9919736
  20.3467698   4.4042355  35.5231741  17.9623507   6.7271026  34.5634838
  18.7038191   7.2656070  34.2869662  17.2560492   7.3537315  34.7206390
  23.4378847   8.8700166  33.1607000  23.8462203   8.4282577  32.4161632
  22.7156108   8.2952794  33.4141192  19.7909917   3.8072773  30.5340557
  20.6371112   4.2312187  30.6775206  19.7308554   3.1506397  31.2279120
  23.7607661   9.4301357  26.9159288  23.1316524   9.5947071  26.2135356
  23.3733323   9.8442966  27.6870253  27.6396893  10.3655795  24.2703652
  26.9547931  10.7454696  23.7200686  27.7240743  10.9751121  25.0035600
  22.9409362   1.4677141  32.1921730  22.6970294   2.2219202  31.6556006
  23.2169293   1.8462489  33.0268977  24.8947825   8.0115754  30.8698996
  25.1064720   8.6547514  30.1933377  24.8477573   7.1778070  30.4020926
  26.0093653  10.8887709  29.0421353  26.8311096  10.4867896  28.7604035
  26.0056056  10.7855943  29.9937469  19.7750256  10.4371752  31.1982064
  19.8394689  10.8992160  32.0340235  19.0661180   9.8069117  31.3264373
  34.0999646   7.2326458  25.3906325  33.3463354   6.6633856  25.2350329
  34.2347187   7.1989122  26.3376959  21.1166750  12.7263426  35.1961386
  20.6730604  11.9399805  34.8782291  21.7783964  12.9142577  34.5305277
  15.8753871  14.2559228  29.7222065  16.4261297  14.1276291  28.9499058
  15.0365347  14.5554117  29.3716957  23.2147988  13.0066226  33.2242787
  23.1966464  13.8275107  32.7323056  24.1367908  12.8820302  33.4492928
  19.6721042  10.5210356  34.0666296  20.2049379   9.7598644  33.8365604
  19.1435124  10.2284008  34.8090450  26.0166601   7.8445369  26.6952154
  25.3590276   8.5344630  26.7832283  26.8207000   8.2341801  27.0386140
  24.0366795  13.0172240  23.8085057  24.3289770  13.5777297  23.0897422
  24.5465416  13.3100801  24.5638216  22.4466054   4.2636658  31.7959139
  22.8015442   4.4908131  32.6553605  23.0938186   4.5955035  31.1736394
  28.2033171   9.4531621  27.5119739  28.6369678   9.3606910  28.3602793
  28.9164752   9.4289122  26.8739755  21.9361066  13.0533715  29.0452840
  21.9898088  13.6224652  29.8130556  21.0675847  13.2235600  28.6806877
  29.0648721   9.4955322  30.0452625  29.2584611  10.4001132  30.2911900
  28.9649339   9.0362741  30.8791210  24.1263829   9.6462065  35.6193505
  23.9749336   9.4172616  34.7023589  24.1168509  10.6032666  35.6324850
  20.8949166   7.2193977  30.6039772  21.8241226   7.3705137  30.4308739
  20.4740196   7.3077998  29.7488418  19.6937497  11.2444642  28.3738310
  19.5548583  10.8763426  29.2464248  18.9052094  11.7592281  28.2022267
  17.8469257   5.7413834  30.7763408  18.5568876   5.1007026  30.7350027
  17.8038565   5.9926729  31.6989589  25.8356036  12.6781187  33.6969987
  25.7768582  11.9940407  33.0300570  26.2375554  13.4200177  33.2450613
  14.8546735  19.4943101  26.4903706  15.0943333  20.1261625  27.1682725
  14.0115931  19.1431141  26.7769065  25.8373443  10.6420771  31.9283967
  24.9500222  10.3046693  32.0510366  26.4071994   9.9103802  32.1652732
  19.3674597  15.3022223  28.8945210  19.2944768  16.1077195  29.4064515
  18.9251990  15.5014189  28.0693232  30.3190784   6.0528988  26.6900529
  30.3080660   6.9353704  26.3194462  29.4508163   5.7000539  26.4955066
  21.8273280  15.2009057  31.0503369  22.5401252  15.8356522  30.9779270
  21.3363309  15.2972923  30.2343371  16.8785194  12.9503501  31.8708940
  17.5794653  13.5839984  32.0238334  16.4080309  13.2918232  31.1104579
  24.6786480   5.5048108  29.6961490  24.0257930   5.7524016  29.0413943
  25.0566859   4.6912247  29.3623967  21.6393653  15.5407802  23.7989660
  21.8216048  14.7229457  24.2617413  22.4626639  15.7575494  23.3614550
  20.7274053   6.2467919  36.1827527  20.0514690   6.1462049  36.8529902
  21.5501686   6.0907133  36.6463524  12.4752912  12.4839856  28.8040042
  13.0606348  11.7383544  28.9367947  12.2777750  12.7943813  29.6876706
  19.4696835  17.5534847  30.4185143  20.0215143  17.7166468  31.1834228
  19.8103029  18.1439285  29.7465168  24.3207710  12.3796104  36.2733798
  24.8647614  12.9926063  35.7788752  23.7394555  12.9375683  36.7900811
  22.6065223  15.5016822  27.4048825  22.4816362  14.7006562  26.8959771
  23.2644314  15.9963016  26.9162795  24.6700131  13.3025842  29.0328375
  23.7230467  13.1831194  28.9606702  25.0182904  12.4148341  29.1154637
  21.6746564  13.0978559  25.2332728  21.5271527  12.1695266  25.4140298
  22.5000058  13.1198649  24.7489803  25.2780686  13.9207117  26.3197600
  26.2027234  13.7149979  26.1822051  25.1095990  13.6723519  27.2286942
  19.6162647  15.1193328  32.4333797  19.9249773  14.8742475  33.3056497
  20.4138129  15.3239967  31.9452668  19.6383259  17.2731238  24.6639174
  19.1988249  16.7807617  25.3572031  20.3891376  16.7304206  24.4231249
  27.6436504  11.8392158  35.6095119  26.8532048  11.8216297  35.0699618
  27.4069859  12.3780452  36.3644155  27.7634379   8.6884625  32.9227847
  27.8132384   8.5234632  33.8643370  27.6548303   7.8211884  32.5325728
  25.0538142   4.6715553  34.2387154  25.9548004   4.5322018  33.9471152
  25.1286116   4.8370008  35.1785331  29.2652576  11.1081566  33.1669869
  28.9737384  11.4711547  34.0033330  28.6524707  10.3948575  32.9883201
  30.4648258   8.6734446  25.6872439  31.2995150   9.1124250  25.8509999
  30.6007387   8.1973099  24.8680685  27.5139764   6.2314181  31.6349927
  27.9893886   6.4241827  30.8268778  26.5905330   6.2873367  31.3893311
  26.2141433   3.1079941  29.8678232  27.1658856   3.2078039  29.8890457
  26.0444884   2.3158210  30.3776317  28.6929511   6.3286061  28.9820532
  28.6605831   5.3902061  29.1680216  29.3030135   6.4070097  28.2486357
  28.8424000   3.1197104  29.0278815  28.3263048   2.3355561  28.8408744
  29.7263948   2.7915821  29.1925335  34.5106061   7.3902068  28.1226569
  35.2409449   7.1287356  28.6834272  33.9013006   6.6530790  28.1628637
  32.5921358   5.5309930  28.7201020  31.8654522   5.3965895  28.1117512
  32.1768645   5.8386759  29.5257738  20.4151534   9.2499860  36.4848393
  21.3354544   9.4278459  36.6788440  20.3801117   8.3055905  36.3328092
  18.1472742   6.1631239  37.3338985  17.6639824   6.9631599  37.5402874
  18.2333681   6.1739184  36.3806429  14.0746080  10.0535774  29.3707419
  15.0289333  10.0219716  29.3037350  13.8758603   9.5926398  30.1857645
  14.6645462   8.6236890  31.9378216  15.4838351   9.1180969  31.9613054
  14.9382270   7.7068858  31.9095784  15.5865435  16.4924710  26.5996059
  15.4697819  17.4370143  26.4974749  14.7657881  16.1898272  26.9881858
  22.4433768  10.0255871  38.1362554  23.3124928  10.1996524  37.7749189
  21.9640520  10.8450288  38.0138283  16.6119949  17.1452972  29.8151988
  17.5147195  17.1776583  30.1318483  16.3857319  16.2153423  29.8298323
  18.3673551  15.8983959  26.4762066  17.4169182  15.8985820  26.3626439
  18.6706037  15.1516693  25.9598101  34.1026244  21.7344497  27.5407829
  34.7404654  21.6151245  26.8371169  33.9847087  22.6825341  27.5995781
  30.9115950  21.6871925  27.4769353  30.5734462  21.5712990  26.5889888
  31.7805719  21.2863090  27.4570359  26.7702766  23.5407402  23.4666244
  26.2067631  23.4497339  22.6982532  26.6555161  22.7207306  23.9468737
  31.3935733  22.8406777  33.4355559  31.3824374  22.4459575  32.5636063
  31.5556373  22.1072850  34.0289330  24.3167198  25.0358593  26.3050465
  25.1088490  24.6949418  25.8896764  24.5563848  25.1453568  27.2252618
  32.3502325  27.2078369  18.7780709  31.6990305  27.7932450  18.3914723
  33.1446688  27.7384564  18.8375747  26.2757952  24.2967507  19.1767844
  27.0488828  23.7496494  19.0380719  26.6283351  25.1611756  19.3882305
  28.1142995  25.6243889  32.3834743  27.8232861  26.5289520  32.2681409
  28.7499979  25.6660416  33.0978812  29.0399201  23.0020737  28.9736102
  29.6362774  22.7776760  28.2593065  29.0974173  22.2605483  29.5761550
  33.6567513  19.4595951  24.6161037  34.4430602  19.0415374  24.2651454
  33.9206217  20.3642043  24.7842685  33.8277590  24.8968801  19.3149693
  33.1923423  24.9703428  20.0270598  33.4974996  25.4862400  18.6368773
  39.0575940  19.3971184  25.5194015  39.7901112  18.8270401  25.7531845
  38.3015295  19.0092785  25.9600521  28.3320519  22.3588279  19.0110668
  28.2156777  21.6833182  19.6791753  28.4422778  21.8720653  18.1942821
  30.6752059  21.8198426  22.7157358  30.3110267  21.2929047  23.4270279
  31.5319175  21.4296895  22.5423843  36.5801360  13.1092758  29.9788624
  36.2484685  13.9788169  29.7549839  35.9846973  12.7929042  30.6582654
  33.0732880  25.3105304  29.3784537  32.7733603  26.2130343  29.2700344
  32.7283939  25.0437488  30.2305689  26.5245361  21.7619101  25.4121241
  25.5995858  21.6295315  25.6198933  26.7729774  22.5413320  25.9091183
  36.4730023  17.8287845  27.0581974  35.5646901  17.7603253  26.7640735
  36.4217619  18.3059789  27.8863799  30.2946767  19.3045983  18.6965373
  30.1746393  19.7503034  19.5350853  29.5999356  19.6531301  18.1378911
  23.8854172  21.4052375  26.2465030  24.0146553  21.6586854  27.1604442
  23.2051623  21.9980083  25.9269685  28.0553659  32.0749625  22.3455504
  27.9777689  33.0257450  22.4243985  27.4515303  31.7295497  23.0030431
  30.5470889  19.2477490  35.0016871  29.7704223  19.8071410  34.9919736
  31.1861452  19.7334273  35.5231741  38.3391670  16.0304283  28.8359848
  37.6966050  16.3236816  28.1899642  37.8346598  15.9157203  29.6413044
  35.9931833  19.7767456  19.5245707  36.9049690  20.0094843  19.3493405
  35.4841481  20.3604500  18.9620786  28.8017262  22.0562943  34.5634838
  29.5431946  22.5947987  34.2869662  28.0954247  22.6829232  34.7206390
  34.2772601  24.1992084  33.1607000  34.6855957  23.7574494  32.4161632
  33.5549863  23.6244711  33.4141192  30.6303671  19.1364691  30.5340557
  31.4764866  19.5604104  30.6775206  30.5702309  18.4798315  31.2279120
  34.6001416  24.7593275  26.9159288  33.9710278  24.9238989  26.2135356
  34.2127078  25.1734884  27.6870253  38.4790648  25.6947712  24.2703652
  37.7941686  26.0746614  23.7200686  38.5634497  26.3043039  25.0035600
  33.7803117  16.7969059  32.1921730  33.5364048  17.5511120  31.6556006
  34.0563047  17.1754407  33.0268977  35.7341579  23.3407671  30.8698996
  35.9458475  23.9839431  30.1933377  35.6871328  22.5069988  30.4020926
  33.3367808  15.9525492  27.7735568  32.4752287  16.2506746  28.0652305
  33.3630243  16.1695891  26.8416601  30.1529378  24.4967683  24.1809374
  30.6167723  24.7755386  23.3913996  29.8886176  23.5951127  23.9982464
  27.0453459  24.0439164  27.1189137  27.6154816  24.4726433  26.4806621
  27.6361571  23.7621749  27.8173323  29.0898264  20.6190835  20.9898939
  29.7922307  21.0711879  21.4572865  28.7578892  19.9774654  21.6178832
  27.5378625  19.2102592  35.3650148  26.9077286  19.8918872  35.5985545
  27.4314713  19.0985673  34.4203286  22.8323598  18.8774388  26.2916072
  22.0422652  19.1331916  25.8156183  23.3234845  19.6922726  26.3968113
  36.8487407  26.2179627  29.0421353  37.6704851  25.8159814  28.7604035
  36.8449810  26.1147861  29.9937469  24.7838343  19.2418967  23.2499549
  23.9869506  19.3537661  23.7683045  24.5563935  19.5805619  22.3840440
  30.6144011  25.7663670  31.1982064  30.6788443  26.2284077  32.0340235
  29.9054935  25.1361035  31.3264373  21.1161301  19.1304878  28.7231063
  21.3669339  20.0151888  28.9888639  21.6520849  18.9509480  27.9506155
  44.9393400  22.5618375  25.3906325  44.1857109  21.9925773  25.2350329
  45.0740942  22.5281040  26.3376959  30.3292028  27.4331778  21.0661044
  30.1937703  28.2783313  21.4945892  30.8701841  27.6351055  20.3026978
  26.8159368  13.5123357  37.7275399  26.4226314  12.9589556  38.4023043
  27.6325508  13.8233936  38.1181917  23.7821426  24.9507216  21.6388969
  24.2945946  25.7450466  21.7894534  24.4344139  24.2533506  21.5722570
  25.5916310  28.0672972  23.7211722  25.7682939  28.9890937  23.5332706
  26.3873144  27.7531391  24.1506102  29.7327329  14.9281237  35.3195656
  30.4737042  15.5288390  35.2400118  29.9645252  14.1858874  34.7613698
  24.8768667  20.1137604  33.5973885  24.7622182  19.2122861  33.8980984
  24.0213185  20.3601301  33.2458702  31.9560505  28.0555344  35.1961386
  31.5124359  27.2691723  34.8782291  32.6177718  28.2434495  34.5305277
  26.7147626  29.5851146  29.7222065  27.2655051  29.4568209  28.9499058
  25.8759102  29.8846035  29.3716957  34.0541743  28.3358144  33.2242787
  34.0360218  29.1567025  32.7323056  34.9761663  28.2112219  33.4492928
  30.5114797  25.8502274  34.0666296  31.0443134  25.0890562  33.8365604
  29.9828878  25.5575925  34.8090450  33.6784492  10.9562340  29.5959937
  33.3348761  11.8463981  29.5199048  34.0463455  10.7663997  28.7329522
  21.7470343  23.2795870  22.4148540  22.5845565  23.6892878  22.1982247
  21.9248610  22.3395312  22.3848733  33.6434775  20.9470951  18.1032373
  33.1281398  21.7175555  18.3420760  33.3712083  20.2736087  18.7265434
  31.2281886  15.7920651  23.1617611  30.3723482  15.4027502  22.9823250
  31.6408837  15.8712612  22.3017396  32.7581032  13.3266995  27.5609171
  32.2545828  13.2897130  26.7476976  33.0511639  14.2359737  27.6205827
  29.0023918  13.4105724  26.5675352  29.8676915  13.2148533  26.2081242
  29.0701427  13.1816076  27.4944709  38.6169049  23.7003305  20.0385546
  37.8398492  23.3614465  19.5940708  39.2960530  23.7055928  19.3640511
  33.4321078  18.8198043  19.9292154  33.1271213  19.1344192  20.7802297
  34.3851520  18.8979463  19.9719487  31.8767510  24.9788266  21.5785108
  31.3488871  24.2441026  21.2658345  31.3755012  25.7562942  21.3325076
  36.8560356  23.1737287  26.6952154  36.1984030  23.8636548  26.7832283
  37.6600755  23.5633718  27.0386140  26.6086237  15.6407932  23.9391719
  27.1829989  15.4183114  23.2064912  27.1957220  15.7096627  24.6920320
  35.6665814  21.5281659  24.7456096  36.1797696  22.1611651  25.2477805
  36.3167038  20.9282855  24.3799456  32.9288189  31.5065983  17.5016767
  32.2549887  31.8097680  18.1101725  33.3154011  32.3095064  17.1522224
  32.1446645  19.0031115  26.9914436  31.2269207  19.2246062  26.8336124
  32.5606789  19.0777425  26.1326144  32.9281693  20.4022530  22.1217117
  33.6753512  20.9143928  21.8124239  33.1973283  20.0806583  22.9821510
  31.2008343  22.8981071  19.1044071  30.2919563  22.6140104  19.2016541
  31.2303427  23.3180150  18.2447378  36.4327611  26.5087661  22.8735238
  35.9789938  25.6678571  22.9300429  35.8021577  27.1449059  23.2110019
  35.3760530  17.4379647  24.1035906  34.6383287  16.9257033  24.4346148
  35.6287304  16.9980028  23.2919183  34.8760550  28.3464157  23.8085057
  35.1683524  28.9069214  23.0897422  35.3859171  28.6392718  24.5638216
  35.4772158  10.2155899  24.6977675  35.7831034   9.3553262  24.4103590
  36.2024762  10.8073519  24.4976669  21.7696514  20.6186585  23.0859273
  21.5720913  20.0255946  22.3610340  21.2143178  20.3138795  23.8035212
  29.7493237  20.5109692  25.2053866  29.8041847  19.5583528  25.1296343
  28.9384439  20.6669131  25.6895165  30.8984431  24.4389815  16.4432149
  30.4603861  23.7225674  15.9837787  31.6394872  24.6665930  15.8817241
  27.6885597  19.1286751  22.9644245  26.8753463  19.4280922  23.3709437
  28.1844591  18.7342440  23.6818727  29.8394175  29.1244508  24.8978510
  29.7970354  29.3505355  23.9687042  30.7556874  28.8907883  25.0464311
  33.2859809  19.5928576  31.7959139  33.6409197  19.8200049  32.6553605
  33.9331940  19.9246953  31.1736394  39.0157546  22.7147012  22.5008468
  38.8775444  22.9048608  21.5729657  38.6593765  23.4766395  22.9576519
  27.1799672  16.7005107  28.5805480  27.8199051  16.5593866  27.8828443
  26.3477203  16.4139620  28.2044082  39.0426925  24.7823539  27.5119739
  39.4763432  24.6898828  28.3602793  39.7558506  24.7581039  26.8739755
  27.9559976  26.0007537  24.6940472  28.7500574  25.5057858  24.4923047
  27.2451668  25.4725401  24.3308178  32.7754820  28.3825633  29.0452840
  32.8291843  28.9516569  29.8130556  31.9069602  28.5527518  28.6806877
  24.2642739  20.1450619  20.7700225  23.3340327  20.0835075  20.9870187
  24.3600211  19.6226572  19.9736866  24.1828288  16.6705432  23.3578467
  24.4435106  17.5850765  23.2487627  25.0045461  16.2029875  23.5075080
  25.6553214  18.0843189  30.5277291  26.3276267  17.8760551  29.8789940
  24.8283000  17.8865275  30.0882524  39.9042475  24.8247240  30.0452625
  40.0978365  25.7293050  30.2911900  39.8043093  24.3654659  30.8791210
  31.5578786  14.7105130  32.5442952  30.9106701  15.4095080  32.4507429
  32.3279801  15.1441274  32.9119200  34.9657584  24.9753982  35.6193505
  34.8143090  24.7464534  34.7023589  34.9562263  25.9324584  35.6324850
  31.7342920  22.5485895  30.6039772  32.6634980  22.6997055  30.4308739
  31.3133950  22.6369916  29.7488418  30.5331252  26.5736559  28.3738310
  30.3942338  26.2055344  29.2464248  29.7445848  27.0884199  28.2022267
  31.1279404  31.6745656  19.7163846  31.3031160  31.2033699  20.5309469
  30.4412192  32.3011422  19.9445107  32.0836467  25.9518162  25.7627147
  31.7486300  25.9118932  26.6584797  31.5840413  25.2862878  25.2897558
  26.0580711  21.3585792  31.2879728  25.9200509  20.6266031  31.8891268
  26.9685634  21.2694692  31.0063916  35.0195659  23.2974196  16.0364207
  34.4024829  22.5721025  15.9397260  34.5512147  24.0583557  15.6931281
  28.6863012  21.0705751  30.7763408  29.3962630  20.4298944  30.7350027
  28.6432320  21.3218646  31.6989589  36.6749790  28.0073105  33.6969987
  36.6162337  27.3232325  33.0300570  37.0769309  28.7492095  33.2450613
  27.3991946  18.0570969  32.5959048  26.8629303  17.6061708  33.2480644
  26.8108654  18.1916878  31.8529512  25.6940489  34.8235019  26.4903706
  25.9337087  35.4553543  27.1682725  24.8509686  34.4723059  26.7769065
  36.6767198  25.9712689  31.9283967  35.7893976  25.6338611  32.0510366
  37.2465749  25.2395720  32.1652732  18.3296345  22.3036781  25.2527018
  19.0167385  21.9898511  24.6648034  18.1744473  23.2078145  24.9794270
  23.1331067  17.1926977  29.6812042  23.0489256  16.5852647  28.9462452
  22.3113773  17.6835995  29.6821538  30.2068351  30.6314141  28.8945210
  30.1338523  31.4369113  29.4064515  29.7645744  30.8306107  28.0693232
  29.9958131  29.8685911  22.4048032  29.2125653  30.4107591  22.4986256
  30.6950876  30.3859891  22.8042273  33.3054781  15.6780541  25.0482237
  33.8023480  14.9250503  24.7283307  32.5341762  15.7144857  24.4825446
  41.1584538  21.3820906  26.6900529  41.1474414  22.2645622  26.3194462
  40.2901918  21.0292457  26.4955066  32.6667035  30.5300975  31.0503369
  33.3795007  31.1648440  30.9779270  32.1757063  30.6264841  30.2343371
  34.3884561  24.4352228  22.6220661  33.4540840  24.5553690  22.4525365
  34.5661230  23.5324695  22.3580670  29.8889750  17.8197924  24.7753922
  29.5187537  17.2668964  25.4634827  30.3848842  17.2156057  24.2228922
  37.7757113  20.2769547  23.1570695  38.2417565  21.1097539  23.0830997
  38.2264613  19.8114529  23.8615953  27.7178948  28.2795419  31.8708940
  28.4188408  28.9131902  32.0238334  27.2474063  28.6210150  31.1104579
  35.8433344  26.6213368  20.1556847  36.1193188  26.5069963  21.0650721
  34.9737843  26.2230853  20.1169020  35.7473776  12.6450134  27.1961596
  34.8336855  12.8754361  27.3643803  36.1766877  12.7288578  28.0475628
  35.5180234  20.8340026  29.6961490  34.8651684  21.0815933  29.0413943
  35.8960614  20.0204164  29.3623967  32.4787408  30.8699719  23.7989660
  32.6609802  30.0521375  24.2617413  33.3020394  31.0867411  23.3614550
  32.8129573  29.7967904  21.0604709  33.3417340  29.2860359  20.4474871
  33.0757793  29.4810435  21.9250242  31.5667807  21.5759837  36.1827527
  30.8908444  21.4753966  36.8529902  32.3895441  21.4199051  36.6463524
  23.3146666  27.8131774  28.8040042  23.9000103  27.0675462  28.9367947
  23.1171505  28.1235730  29.6876706  26.1685321  30.8483021  23.8202485
  25.4995697  31.3329149  23.3366525  26.0298191  31.0952241  24.7345863
  17.9064321  20.3837374  27.5244486  17.9448420  19.8500965  28.3181604
  17.4004614  19.8572579  26.9055463  30.3090590  32.8826765  30.4185143
  30.8608898  33.0458386  31.1834228  30.6496783  33.4731202  29.7465168
  25.2855083  15.2301914  31.0207028  25.3496410  16.0916745  30.6084426
  25.2222203  14.6175916  30.2879386  24.7607356  17.3025047  34.6680062
  25.3879395  16.9202124  35.2817586  23.9035275  17.0839249  35.0335755
  35.1601464  27.7088022  36.2733798  35.7041368  28.3217980  35.7788752
  34.5788309  28.2667600  36.7900811  33.4458977  30.8308740  27.4048825
  33.3210117  30.0298480  26.8959771  34.1038068  31.3254933  26.9162795
  25.0667145  17.1857473  26.5825966  24.3453731  17.7993440  26.4433439
  25.8560401  17.7215237  26.5042611  35.5093886  28.6317760  29.0328375
  34.5624221  28.5123111  28.9606702  35.8576659  27.7440258  29.1154637
  27.8693459  14.5211899  32.8566617  28.3927861  14.7674196  33.6192927
  27.6505792  15.3531934  32.4369755  32.5140319  28.4270476  25.2332728
  32.3665281  27.4987184  25.4140298  33.3393812  28.4490567  24.7489803
  26.3802563  17.0788543  21.0913220  26.7198636  17.6074465  20.3691828
  26.8274684  17.4168950  21.8671786  36.1174441  29.2499035  26.3197600
  37.0420988  29.0441896  26.1822051  35.9489744  29.0015436  27.2286942
  29.0746004  15.4625594  30.5416288  28.7342824  14.6633407  30.9436968
  28.3685010  15.7627305  29.9693121  29.7262476  12.5474907  28.9943611
  30.5488545  12.0735385  28.8722501  29.9700539  13.3265390  29.4942297
  32.5101833  16.2808314  20.2264845  32.7265448  17.1632952  19.9253673
  32.0295900  15.8894527  19.4970487  27.2501055  19.2394027  26.8035589
  27.1045635  19.5534330  27.6959871  26.7726258  19.8578928  26.2506488
  29.1097437  16.2296575  26.8516479  29.0959006  15.3337669  26.5148777
  29.8269866  16.2367239  27.4854765  30.9623568  16.6633915  28.8969606
  30.7041346  17.5850986  28.8953937  30.4308609  16.2664350  29.5870071
  35.9069757  29.7684703  21.6759692  36.0806634  29.2031125  20.9233544
  36.3998648  30.5685597  21.4939182  21.7246717  21.7799372  29.7423251
  21.1800185  22.5559180  29.8743525  22.6026067  22.1270176  29.5842372
  28.5134333  15.1110956  22.1204049  28.6350245  14.1827602  22.3194937
  28.2236376  15.1249641  21.2082365  31.3825524  12.7965866  25.2570769
  31.4047221  12.8605199  24.3022749  31.7993583  11.9570375  25.4511275
  41.7609148  22.5321126  23.2949992  42.2040294  21.7828451  22.8969115
  40.8835658  22.5231262  22.9123724  36.8944929  29.0851467  18.7756590
  37.5895834  29.7058160  18.9943905  37.2368080  28.2346818  19.0508968
  22.5112739  20.9069268  32.6353407  21.7694475  21.0551903  33.2218038
  22.1905483  21.1677534  31.7720157  38.7936353  26.5351173  20.3043921
  39.3187677  26.8738445  19.5793241  38.7058705  25.5998188  20.1207055
  30.4556401  30.4485246  32.4333797  30.7643528  30.2034393  33.3056497
  31.2531883  30.6531885  31.9452668  30.4777013  32.6023156  24.6639174
  30.0382004  32.1099534  25.3572031  31.2285130  32.0596123  24.4231249
  22.9569352  28.7934697  24.6663802  23.7827372  28.4938469  24.2862446
  22.6063404  28.0242319  25.1153591  27.9250885  28.1461165  26.7361476
  27.3030895  27.4831870  26.4363704  28.5955752  28.1722297  26.0535123
  21.1577957  26.7121023  25.6252736  20.3209866  26.2843197  25.4436737
  21.1301603  26.9053466  26.5623527  27.9975413  16.6242953  36.3293982
  28.0463568  17.5005076  35.9471751  28.5397927  16.0820346  35.7565625
  38.4830259  27.1684076  35.6095119  37.6925802  27.1508215  35.0699618
  38.2463613  27.7072370  36.3644155  38.6028134  24.0176543  32.9227847
  38.6526139  23.8526550  33.8643370  38.4942057  23.1503802  32.5325728
  27.4864392  26.6965088  20.2119936  27.6352513  27.3800553  19.5586609
  28.2930836  26.6770178  20.7269392  35.8931896  20.0007471  34.2387154
  36.7941759  19.8613935  33.9471152  35.9679871  20.1661925  35.1785331
  30.2274701  17.3774325  33.0840340  29.3578011  17.6707891  32.8122929
  30.4634182  17.9614770  33.8047604  40.1046331  26.4373484  33.1669869
  39.8131139  26.8003465  34.0033330  39.4918462  25.7240492  32.9883201
  41.3042013  24.0026364  25.6872439  42.1388904  24.4416168  25.8509999
  41.4401142  23.5265017  24.8680685  38.3533519  21.5606099  31.6349927
  38.8287640  21.7533745  30.8268778  37.4299084  21.6165284  31.3893311
  25.2417025  22.7230266  21.2181005  24.9963067  21.8192596  21.4161215
  25.4112940  22.7247416  20.2760483  32.9313735  13.5953942  30.6005761
  33.4495679  14.3314969  30.2752249  32.5768868  13.9017936  31.4352520
  33.1826329  10.0154225  26.1206657  33.4628083   9.3477414  26.7467084
  33.9676936  10.2083320  25.6081321  30.9859798  29.1913219  17.6831684
  30.4133765  29.8103406  17.2302156  31.5592592  29.7412580  18.2171606
  37.0535188  18.4371859  29.8678232  38.0052611  18.5369956  29.8890457
  36.8838638  17.6450127  30.3776317  35.0749567  15.5227442  30.0537633
  34.4799499  15.8032455  29.3584122  34.7899264  16.0121343  30.8254374
  34.2057058  29.4750369  18.8140266  35.1387731  29.4095930  19.0173141
  34.1180271  30.3106636  18.3554799  36.8345074  28.7916239  15.7744214
  36.7558706  28.4576103  16.6679971  37.6554741  29.2838007  15.7735686
  39.5323266  21.6577978  28.9820532  39.4999586  20.7193979  29.1680216
  40.1423889  21.7362015  28.2486357  39.6817754  18.4489022  29.0278815
  39.1656803  17.6647479  28.8408744  40.5657703  18.1207738  29.1925335
  37.3428481  12.1930037  24.9874628  37.1453302  11.8845126  25.8717960
  37.9528187  12.9191676  25.1172558  45.3499815  22.7193985  28.1226569
  46.0803204  22.4579273  28.6834272  44.7406761  21.9822707  28.1628637
  43.4315113  20.8601848  28.7201020  42.7048276  20.7257813  28.1117512
  43.0162399  21.1678676  29.5257738  31.2545289  24.5791778  36.4848393
  32.1748298  24.7570377  36.6788440  31.2194872  23.6347823  36.3328092
  20.4727454  19.7730371  25.4101668  20.1530238  18.9195679  25.1176042
  19.9260882  19.9878949  26.1659635  24.2507361  22.4892812  29.1271174
  24.4693371  23.4209920  29.1459208  24.6633135  22.1300787  29.9125978
  31.1711579  12.9960898  21.1146863  30.3612308  12.6507982  21.4902109
  31.8595996  12.6868441  21.7034474  33.1002128  12.0738944  22.7371159
  33.6533166  12.4934398  23.3961182  33.3372214  11.1474692  22.7794115
  29.1235227  18.0626018  38.5173923  29.0231954  19.0120375  38.4486014
  28.9056769  17.7344257  37.6449993  20.3415714  23.3933283  27.3794789
  19.6479185  22.9787235  26.8664744  21.0888705  23.4353819  26.7828208
  36.4780935  14.1839469  22.2449824  35.8979604  14.8424274  21.8627876
  36.2116867  13.3616814  21.8337241  34.9284501  13.5844527  24.4471144
  35.4284279  13.6961062  23.6385463  35.5720109  13.2805580  25.0871952
  28.9866497  21.4923157  37.3338985  28.5033579  22.2923517  37.5402874
  29.0727436  21.5031102  36.3806429  22.2552456  23.3251536  25.2560804
  22.2323145  23.4239224  24.3042687  22.5653093  24.1716687  25.5777970
  24.9139834  25.3827692  29.3707419  25.8683088  25.3511634  29.3037350
  24.7152358  24.9218315  30.1857645  25.5039216  23.9528808  31.9378216
  26.3232105  24.4472886  31.9613054  25.7776024  23.0360776  31.9095784
  35.2605813  16.3439560  21.3006172  34.3731668  16.6289210  21.0826367
  35.6759802  16.1833323  20.4533449  38.6120349  16.3686081  25.0160511
  39.3880739  16.8582533  25.2885128  37.8868483  16.7944135  25.4732381
  41.0492907  17.0813700  26.0734452  41.6437398  16.8409436  25.3627760
  41.1219491  16.3620831  26.7007988  23.2690063  30.9247311  26.3877617
  23.1344531  30.1647712  25.8215615  22.8522125  31.6488211  25.9206405
  34.4049026  26.1084235  15.3954192  35.1084876  26.3134237  16.0111847
  33.6811675  26.6760996  15.6603275  35.2346836  21.8594096  21.5156462
  35.1782038  22.3162647  20.6764094  35.7875179  21.0984780  21.3379305
  39.0451642  17.6483828  22.3406581  38.7888577  17.2480463  23.1714789
  38.4204510  18.3627622  22.2156721  43.3563980  20.3879901  24.8477873
  42.7963538  20.4573090  25.6209435  42.7507484  20.2120886  24.1277369
  26.4259189  31.8216628  26.5996059  26.3091573  32.7662061  26.4974749
  25.6051635  31.5190190  26.9881858  36.3135724  26.5466764  17.4452652
  37.1481327  26.1147962  17.2630127  36.1520066  26.3748777  18.3729546
  35.9681616  23.0498877  18.8108991  35.9130420  22.8843148  17.8697435
  35.3427671  23.7574910  18.9671181  20.7574131  18.2866941  32.6370413
  21.4032994  17.7765895  33.1257639  20.5491282  19.0235623  33.2113839
  33.2827523  25.3547789  38.1362554  34.1518683  25.5288441  37.7749189
  32.8034274  26.1742206  38.0138283  27.4513703  32.4744890  29.8151988
  28.3540950  32.5068500  30.1318483  27.2251073  31.5445341  29.8298323
  29.2067305  31.2275876  26.4762066  28.2562936  31.2277738  26.3626439
  29.5099791  30.4808611  25.9598101  33.0929861   9.1449763  22.6440246
  32.3262256   8.5908249  22.7896929  33.5040566   9.2171631  23.5054398
  25.0971622  15.4334558  36.7345428  25.9603083  15.0771363  36.9448752
  24.5237032  15.0948453  37.4220832  44.9419999  37.0636415  27.5407829
  45.5798409  36.9443162  26.8371169  44.8240842  38.0117259  27.5995781
  41.7509705  37.0163843  27.4769353  41.4128216  36.9004908  26.5889888
  42.6199473  36.6155008  27.4570359  37.6096521  38.8699319  23.4666244
  37.0461386  38.7789256  22.6982532  37.4948916  38.0499224  23.9468737
  42.2329488  38.1698695  33.4355559  42.2218129  37.7751493  32.5636063
  42.3950127  37.4364767  34.0289330  35.1560953  40.3650511  26.3050465
  35.9482244  40.0241336  25.8896764  35.3957603  40.4745486  27.2252618
  43.1896079  42.5370287  18.7780709  42.5384059  43.1224367  18.3914723
  43.9840442  43.0676482  18.8375747  37.1151706  39.6259424  19.1767844
  37.8882582  39.0788411  19.0380719  37.4677105  40.4903674  19.3882305
  38.9536749  40.9535806  32.3834743  38.6626615  41.8581437  32.2681409
  39.5893733  40.9952334  33.0978812  39.8792956  38.3312655  28.9736102
  40.4756528  38.1068677  28.2593065  39.9367927  37.5897400  29.5761550
  39.4517984  35.7852090  16.8086293  39.7043505  35.2633612  16.0469756
  38.5142543  35.6218236  16.9112977  44.4961267  34.7887869  24.6161037
  45.2824356  34.3707292  24.2651454  44.7599971  35.6933961  24.7842685
  44.6671344  40.2260719  19.3149693  44.0317177  40.2995346  20.0270598
  44.3368751  40.8154318  18.6368773  49.8969694  34.7263102  25.5194015
  50.6294866  34.1562319  25.7531845  49.1409050  34.3384702  25.9600521
  39.1714273  37.6880196  19.0110668  39.0550531  37.0125100  19.6791753
  39.2816533  37.2012570  18.1942821  41.5145814  37.1490343  22.7157358
  41.1504021  36.6220964  23.4270279  42.3712930  36.7588812  22.5423843
  47.4195115  28.4384676  29.9788624  47.0878439  29.3080087  29.7549839
  46.8240728  28.1220960  30.6582654  41.1551301  32.1780243  17.7118706
  41.3225703  33.0460479  18.0789177  40.9648470  32.3407525  16.7879995
  43.9126634  40.6397222  29.3784537  43.6127357  41.5422261  29.2700344
  43.5677694  40.3729405  30.2305689  37.3639116  37.0911019  25.4121241
  36.4389612  36.9587233  25.6198933  37.6123529  37.8705238  25.9091183
  47.3123778  33.1579762  27.0581974  46.4040655  33.0895171  26.7640735
  47.2611374  33.6351707  27.8863799  41.1340522  34.6337901  18.6965373
  41.0140147  35.0794951  19.5350853  40.4393110  34.9823218  18.1378911
  34.7247927  36.7344292  26.2465030  34.8540308  36.9878771  27.1604442
  34.0445378  37.3272000  25.9269685  38.8947414  47.4041542  22.3455504
  38.8171444  48.3549367  22.4243985  38.2909058  47.0587415  23.0030431
  41.3864644  34.5769408  35.0016871  40.6097978  35.1363328  34.9919736
  42.0255207  35.0626191  35.5231741  49.1785424  31.3596201  28.8359848
  48.5359805  31.6528734  28.1899642  48.6740353  31.2449121  29.6413044
  46.8325588  35.1059374  19.5245707  47.7443444  35.3386761  19.3493405
  46.3235235  35.6896418  18.9620786  39.6411016  37.3854861  34.5634838
  40.3825700  37.9239905  34.2869662  38.9348001  38.0121150  34.7206390
  45.1166356  39.5284002  33.1607000  45.5249712  39.0866412  32.4161632
  44.3943617  38.9536629  33.4141192  41.4697426  34.4656608  30.5340557
  42.3158621  34.8896022  30.6775206  41.4096063  33.8090233  31.2279120
  45.4395170  40.0885192  26.9159288  44.8104033  40.2530906  26.2135356
  45.0520832  40.5026802  27.6870253  49.3184402  41.0239630  24.2703652
  48.6335440  41.4038531  23.7200686  49.4028252  41.6334957  25.0035600
  44.6196871  32.1260977  32.1921730  44.3757803  32.8803037  31.6556006
  44.8956802  32.5046324  33.0268977  46.5735334  38.6699589  30.8698996
  46.7852229  39.3131349  30.1933377  46.5265082  37.8361906  30.4020926
  44.1761563  31.2817410  27.7735568  43.3146042  31.5798663  28.0652305
  44.2023997  31.4987809  26.8416601  40.9923132  39.8259600  24.1809374
  41.4561478  40.1047303  23.3913996  40.7279930  38.9243045  23.9982464
  37.8847213  39.3731082  27.1189137  38.4548570  39.8018350  26.4806621
  38.4755325  39.0913667  27.8173323  39.9292018  35.9482753  20.9898939
  40.6316062  36.4003796  21.4572865  39.5972647  35.3066572  21.6178832
  38.3772380  34.5394509  35.3650148  37.7471040  35.2210790  35.5985545
  38.2708468  34.4277591  34.4203286  33.6717352  34.2066305  26.2916072
  32.8816406  34.4623834  25.8156183  34.1628600  35.0214643  26.3968113
  47.6881162  41.5471545  29.0421353  48.5098605  41.1451732  28.7604035
  47.6843565  41.4439779  29.9937469  35.6232098  34.5710885  23.2499549
  34.8263261  34.6829579  23.7683045  35.3957690  34.9097537  22.3840440
  41.4537765  41.0955588  31.1982064  41.5182198  41.5575995  32.0340235
  40.7448689  40.4652953  31.3264373  31.9555055  34.4596796  28.7231063
  32.2063094  35.3443806  28.9888639  32.4914604  34.2801397  27.9506155
  55.7787155  37.8910293  25.3906325  55.0250863  37.3217691  25.2350329
  55.9134696  37.8572957  26.3376959  41.1685783  42.7623695  21.0661044
  41.0331458  43.6075231  21.4945892  41.7095595  42.9642973  20.3026978
  37.6553122  28.8415275  37.7275399  37.2620068  28.2881474  38.4023043
  38.4719263  29.1525854  38.1181917  34.6215180  40.2799133  21.6388969
  35.1339701  41.0742384  21.7894534  35.2737893  39.5825424  21.5722570
  36.4310065  43.3964890  23.7211722  36.6076693  44.3182854  23.5332706
  37.2266898  43.0823309  24.1506102  40.5721083  30.2573154  35.3195656
  41.3130797  30.8580307  35.2400118  40.8039006  29.5150792  34.7613698
  35.7162421  35.4429522  33.5973885  35.6015937  34.5414779  33.8980984
  34.8606939  35.6893218  33.2458702  42.7954259  43.3847262  35.1961386
  42.3518113  42.5983640  34.8782291  43.4571473  43.5726412  34.5305277
  37.5541380  44.9143063  29.7222065  38.1048806  44.7860127  28.9499058
  36.7152856  45.2137952  29.3716957  44.8935497  43.6650062  33.2242787
  44.8753973  44.4858943  32.7323056  45.8155417  43.5404137  33.4492928
  41.3508551  41.1794191  34.0666296  41.8836888  40.4182479  33.8365604
  40.8222633  40.8867843  34.8090450  44.5178246  26.2854257  29.5959937
  44.1742516  27.1755899  29.5199048  44.8857209  26.0955915  28.7329522
  32.5864097  38.6087788  22.4148540  33.4239319  39.0184796  22.1982247
  32.7642365  37.6687230  22.3848733  44.4828529  36.2762868  18.1032373
  43.9675153  37.0467473  18.3420760  44.2105838  35.6028004  18.7265434
  42.0675640  31.1212569  23.1617611  41.2117237  30.7319419  22.9823250
  42.4802592  31.2004530  22.3017396  43.5974787  28.6558912  27.5609171
  43.0939582  28.6189047  26.7476976  43.8905394  29.5651655  27.6205827
  39.8417673  28.7397642  26.5675352  40.7070669  28.5440451  26.2081242
  39.9095182  28.5107994  27.4944709  49.4562803  39.0295223  20.0385546
  48.6792246  38.6906382  19.5940708  50.1354284  39.0347846  19.3640511
  44.2714832  34.1489960  19.9292154  43.9664968  34.4636110  20.7802297
  45.2245274  34.2271380  19.9719487  42.7161264  40.3080184  21.5785108
  42.1882626  39.5732943  21.2658345  42.2148767  41.0854860  21.3325076
  47.6954110  38.5029204  26.6952154  47.0377785  39.1928466  26.7832283
  48.4994509  38.8925636  27.0386140  37.4479992  30.9699850  23.9391719
  38.0223744  30.7475031  23.2064912  38.0350974  31.0388544  24.6920320
  46.5059569  36.8573577  24.7456096  47.0191451  37.4903569  25.2477805
  47.1560793  36.2574772  24.3799456  37.7749579  33.0004311  17.9587604
  36.9386891  33.3378998  18.2796879  37.6354349  32.8653291  17.0214741
  39.7502659  27.8441099  22.6666789  39.0967072  27.5290116  22.0423403
  39.7083134  27.2216839  23.3926612  40.8613864  38.1260394  14.5820081
  39.9540926  37.8949647  14.7811230  41.3584896  37.3298013  14.7694062
  43.7681943  46.8357901  17.5016767  43.0943642  47.1389598  18.1101725
  44.1547765  47.6386981  17.1522224  42.9840400  34.3323032  26.9914436
  42.0662961  34.5537979  26.8336124  43.4000543  34.4069343  26.1326144
  43.7675448  35.7314448  22.1217117  44.5147267  36.2435845  21.8124239
  44.0367037  35.4098501  22.9821510  42.0402098  38.2272989  19.1044071
  41.1313317  37.9432022  19.2016541  42.0697182  38.6472067  18.2447378
  47.2721365  41.8379578  22.8735238  46.8183692  40.9970488  22.9300429
  46.6415332  42.4740977  23.2110019  46.2154285  32.7671564  24.1035906
  45.4777042  32.2548951  24.4346148  46.4681058  32.3271946  23.2919183
  45.7154304  43.6756075  23.8085057  46.0077279  44.2361132  23.0897422
  46.2252925  43.9684636  24.5638216  46.3165912  25.5447816  24.6977675
  46.6224789  24.6845180  24.4103590  47.0418517  26.1365437  24.4976669
  32.6090268  35.9478503  23.0859273  32.4114668  35.3547864  22.3610340
  32.0536932  35.6430713  23.8035212  40.5886992  35.8401609  25.2053866
  40.6435602  34.8875446  25.1296343  39.7778194  35.9961049  25.6895165
  41.7378186  39.7681733  16.4432149  41.2997616  39.0517591  15.9837787
  42.4788626  39.9957847  15.8817241  38.5279352  34.4578669  22.9644245
  37.7147217  34.7572840  23.3709437  39.0238346  34.0634358  23.6818727
  40.6787930  44.4536426  24.8978510  40.6364108  44.6797272  23.9687042
  41.5950628  44.2199801  25.0464311  44.1253563  34.9220494  31.7959139
  44.4802951  35.1491967  32.6553605  44.7725695  35.2538870  31.1736394
  49.8551300  38.0438930  22.5008468  49.7169199  38.2340526  21.5729657
  49.4987519  38.8058312  22.9576519  38.0193426  32.0297025  28.5805480
  38.6592806  31.8885784  27.8828443  37.1870957  31.7431538  28.2044082
  49.8820680  40.1115457  27.5119739  50.3157187  40.0190746  28.3602793
  50.5952261  40.0872957  26.8739755  38.7953730  41.3299455  24.6940472
  39.5894329  40.8349775  24.4923047  38.0845423  40.8017318  24.3308178
  43.6148575  43.7117551  29.0452840  43.6685597  44.2808487  29.8130556
  42.7463356  43.8819436  28.6806877  35.1036494  35.4742537  20.7700225
  34.1734082  35.4126992  20.9870187  35.1993966  34.9518490  19.9736866
  35.0222043  31.9997350  23.3578467  35.2828860  32.9142683  23.2487627
  35.8439215  31.5321792  23.5075080  36.4946968  33.4135107  30.5277291
  37.1670022  33.2052469  29.8789940  35.6676755  33.2157193  30.0882524
  50.7436230  40.1539157  30.0452625  50.9372120  41.0584968  30.2911900
  50.6436848  39.6946576  30.8791210  42.3972540  30.0397048  32.5442952
  41.7500455  30.7386997  32.4507429  43.1673556  30.4733192  32.9119200
  45.8051338  40.3045900  35.6193505  45.6536845  40.0756452  34.7023589
  45.7956018  41.2616501  35.6324850  42.5736675  37.8777813  30.6039772
  43.5028735  38.0288972  30.4308739  42.1527705  37.9661833  29.7488418
  41.3725006  41.9028477  28.3738310  41.2336092  41.5347262  29.2464248
  40.5839603  42.4176117  28.2022267  41.9673158  47.0037574  19.7163846
  42.1424914  46.5325617  20.5309469  41.2805946  47.6303340  19.9445107
  42.9230222  41.2810080  25.7627147  42.5880054  41.2410850  26.6584797
  42.4234167  40.6154796  25.2897558  36.8974466  36.6877710  31.2879728
  36.7594263  35.9557949  31.8891268  37.8079389  36.5986610  31.0063916
  45.8589413  38.6266114  16.0364207  45.2418584  37.9012942  15.9397260
  45.3905902  39.3875474  15.6931281  39.5256766  36.3997669  30.7763408
  40.2356385  35.7590861  30.7350027  39.4826074  36.6510564  31.6989589
  47.5143545  43.3365022  33.6969987  47.4556091  42.6524243  33.0300570
  47.9163063  44.0784013  33.2450613  38.2385700  33.3862887  32.5959048
  37.7023057  32.9353626  33.2480644  37.6502409  33.5208796  31.8529512
  36.5334244  50.1526936  26.4903706  36.7730842  50.7845460  27.1682725
  35.6903440  49.8014976  26.7769065  37.6487959  32.8451538  15.1585511
  36.7717425  32.7240339  14.7947758  38.1245712  32.0537617  14.9064400
  47.5160952  41.3004606  31.9283967  46.6287731  40.9630528  32.0510366
  48.0859503  40.5687638  32.1652732  29.1690099  37.6328698  25.2527018
  29.8561139  37.3190428  24.6648034  29.0138228  38.5370063  24.9794270
  33.9724821  32.5218895  29.6812042  33.8883010  31.9144564  28.9462452
  33.1507528  33.0127913  29.6821538  41.0462106  45.9606059  28.8945210
  40.9732277  46.7661030  29.4064515  40.6039499  46.1598025  28.0693232
  40.8351885  45.1977829  22.4048032  40.0519407  45.7399509  22.4986256
  41.5344630  45.7151808  22.8042273  44.1448535  31.0072458  25.0482237
  44.6417235  30.2542421  24.7283307  43.3735517  31.0436775  24.4825446
  51.9978293  36.7112824  26.6900529  51.9868169  37.5937539  26.3194462
  51.1295672  36.3584375  26.4955066  43.5060789  45.8592893  31.0503369
  44.2188761  46.4940358  30.9779270  43.0150818  45.9556759  30.2343371
  45.2278316  39.7644145  22.6220661  44.2934595  39.8845608  22.4525365
  45.4054984  38.8616612  22.3580670  40.7283504  33.1489841  24.7753922
  40.3581292  32.5960882  25.4634827  41.2242596  32.5447975  24.2228922
  48.6150867  35.6061465  23.1570695  49.0811319  36.4389456  23.0830997
  49.0658368  35.1406446  23.8615953  38.5572703  43.6087336  31.8708940
  39.2582162  44.2423819  32.0238334  38.0867818  43.9502068  31.1104579
  46.6827098  41.9505286  20.1556847  46.9586942  41.8361881  21.0650721
  45.8131597  41.5522771  20.1169020  46.5867530  27.9742052  27.1961596
  45.6730610  28.2046279  27.3643803  47.0160632  28.0580496  28.0475628
  46.3573989  36.1631944  29.6961490  45.7045439  36.4107851  29.0413943
  46.7354368  35.3496082  29.3623967  43.3181162  46.1991637  23.7989660
  43.5003557  45.3813293  24.2617413  44.1414148  46.4159329  23.3614550
  43.6523328  45.1259822  21.0604709  44.1811094  44.6152277  20.4474871
  43.9151547  44.8102352  21.9250242  42.4061562  36.9051755  36.1827527
  41.7302199  36.8045884  36.8529902  43.2289195  36.7490969  36.6463524
  34.1540421  43.1423691  28.8040042  34.7393857  42.3967379  28.9367947
  33.9565259  43.4527648  29.6876706  37.0079076  46.1774939  23.8202485
  36.3389451  46.6621066  23.3366525  36.8691946  46.4244159  24.7345863
  28.7458075  35.7129292  27.5244486  28.7842175  35.1792882  28.3181604
  28.2398368  35.1864497  26.9055463  41.1484344  48.2118682  30.4185143
  41.7002652  48.3750304  31.1834228  41.4890538  48.8023120  29.7465168
  36.1248838  30.5593832  31.0207028  36.1890164  31.4208663  30.6084426
  36.0615958  29.9467834  30.2879386  35.6001110  32.6316965  34.6680062
  36.2273149  32.2494042  35.2817586  34.7429029  32.4131167  35.0335755
  45.9995219  43.0379940  36.2733798  46.5435123  43.6509898  35.7788752
  45.4182064  43.5959518  36.7900811  32.3766653  34.4393394  20.5998417
  32.6720094  33.5304072  20.5465471  31.4754689  34.4181133  20.2779419
  44.2852732  46.1600658  27.4048825  44.1603871  45.3590398  26.8959771
  44.9431823  46.6546851  26.9162795  35.9060900  32.5149390  26.5825966
  35.1847486  33.1285358  26.4433439  36.6954156  33.0507155  26.5042611
  46.3487640  43.9609678  29.0328375  45.4017976  43.8415029  28.9606702
  46.6970413  43.0732176  29.1154637  38.7087213  29.8503817  32.8566617
  39.2321615  30.0966113  33.6192927  38.4899547  30.6823852  32.4369755
  34.1054495  32.1207491  20.7237742  33.7767201  31.2404870  20.5412848
  34.4593865  32.0655160  21.6114131  43.3534073  43.7562394  25.2332728
  43.2059036  42.8279101  25.4140298  44.1787567  43.7782485  24.7489803
  37.2196318  32.4080461  21.0913220  37.5592390  32.9366382  20.3691828
  37.6668438  32.7460867  21.8671786  46.9568195  44.5790953  26.3197600
  47.8814743  44.3733814  26.1822051  46.7883499  44.3307354  27.2286942
  39.9139759  30.7917512  30.5416288  39.5736579  29.9925325  30.9436968
  39.2078765  31.0919223  29.9693121  40.5656230  27.8766824  28.9943611
  41.3882300  27.4027302  28.8722501  40.8094294  28.6557308  29.4942297
  39.2064465  30.9055083  19.2906512  39.9272827  31.2836336  18.7870229
  38.5829769  31.6243960  19.3941490  43.3495588  31.6100232  20.2264845
  43.5659202  32.4924870  19.9253673  42.8689655  31.2186445  19.4970487
  38.0894809  34.5685945  26.8035589  37.9439390  34.8826248  27.6959871
  37.6120013  35.1870845  26.2506488  39.9491192  31.5588493  26.8516479
  39.9352761  30.6629586  26.5148777  40.6663620  31.5659157  27.4854765
  41.8017323  31.9925833  28.8969606  41.5435101  32.9142904  28.8953937
  41.2702363  31.5956268  29.5870071  46.7463511  45.0976620  21.6759692
  46.9200389  44.5323043  20.9233544  47.2392403  45.8977515  21.4939182
  32.5640471  37.1091289  29.7423251  32.0193939  37.8851097  29.8743525
  33.4419821  37.4562094  29.5842372  39.3528088  30.4402873  22.1204049
  39.4743999  29.5119519  22.3194937  39.0630130  30.4541559  21.2082365
  42.2219278  28.1257784  25.2570769  42.2440975  28.1897117  24.3022749
  42.6387337  27.2862292  25.4511275  52.6002903  37.8613043  23.2949992
  53.0434049  37.1120368  22.8969115  51.7229413  37.8523180  22.9123724
  47.7338684  44.4143385  18.7756590  48.4289589  45.0350077  18.9943905
  48.0761834  43.5638736  19.0508968  33.3506493  36.2361186  32.6353407
  32.6088229  36.3843821  33.2218038  33.0299237  36.4969451  31.7720157
  49.6330107  41.8643090  20.3043921  50.1581431  42.2030363  19.5793241
  49.5452460  40.9290106  20.1207055  41.2950156  45.7777164  32.4333797
  41.6037282  45.5326311  33.3056497  42.0925638  45.9823802  31.9452668
  41.3170768  47.9315073  24.6639174  40.8775758  47.4391452  25.3572031
  42.0678885  47.3888041  24.4231249  33.7963107  44.1226614  24.6663802
  34.6221127  43.8230386  24.2862446  33.4457159  43.3534237  25.1153591
  38.7644640  43.4753083  26.7361476  38.1424649  42.8123788  26.4363704
  39.4349507  43.5014214  26.0535123  31.9971712  42.0412941  25.6252736
  31.1603620  41.6135115  25.4436737  31.9695357  42.2345384  26.5623527
  38.8369167  31.9534871  36.3293982  38.8857323  32.8296993  35.9471751
  39.3791682  31.4112264  35.7565625  49.3224013  42.4975994  35.6095119
  48.5319557  42.4800133  35.0699618  49.0857368  43.0364288  36.3644155
  49.4421888  39.3468460  32.9227847  49.4919893  39.1818468  33.8643370
  49.3335812  38.4795719  32.5325728  38.3258147  42.0257006  20.2119936
  38.4746267  42.7092470  19.5586609  39.1324590  42.0062096  20.7269392
  46.7325651  35.3299388  34.2387154  47.6335513  35.1905853  33.9471152
  46.8073625  35.4953843  35.1785331  41.0668456  32.7066243  33.0840340
  40.1971765  32.9999809  32.8122929  41.3027936  33.2906688  33.8047604
  50.9440085  41.7665402  33.1669869  50.6524893  42.1295382  34.0033330
  50.3312216  41.0532410  32.9883201  52.1435767  39.3318281  25.6872439
  52.9782659  39.7708086  25.8509999  52.2794896  38.8556935  24.8680685
  49.1927273  36.8898016  31.6349927  49.6681395  37.0825663  30.8268778
  48.2692839  36.9457202  31.3893311  36.0810780  38.0522184  21.2181005
  35.8356822  37.1484514  21.4161215  36.2506694  38.0539334  20.2760483
  43.7707490  28.9245860  30.6005761  44.2889434  29.6606887  30.2752249
  43.4162623  29.2309853  31.4352520  35.3506427  33.7850541  18.7167167
  34.6575672  33.8594896  18.0607203  35.1058179  33.0210885  19.2388684
  44.0220084  25.3446142  26.1206657  44.3021838  24.6769332  26.7467084
  44.8070691  25.5375238  25.6081321  41.8253552  44.5205136  17.6831684
  41.2527519  45.1395323  17.2302156  42.3986346  45.0704498  18.2171606
  47.8928942  33.7663776  29.8678232  48.8446365  33.8661874  29.8890457
  47.7232393  32.9742045  30.3776317  45.9143322  30.8519360  30.0537633
  45.3193254  31.1324372  29.3584122  45.6293018  31.3413261  30.8254374
  45.0450812  44.8042286  18.8140266  45.9781485  44.7387848  19.0173141
  44.9574025  45.6398553  18.3554799  47.6738829  44.1208157  15.7744214
  47.5952460  43.7868020  16.6679971  48.4948496  44.6129925  15.7735686
  50.3717020  36.9869896  28.9820532  50.3393340  36.0485897  29.1680216
  50.9817644  37.0653933  28.2486357  42.2100351  35.8565949  15.0247736
  43.1559456  35.7272157  15.0936154  41.8314596  35.1180611  15.5017164
  50.5211509  33.7780940  29.0278815  50.0050557  32.9939396  28.8408744
  51.4051457  33.4499656  29.1925335  48.1822235  27.5221955  24.9874628
  47.9847057  27.2137043  25.8717960  48.7921941  28.2483594  25.1172558
  56.1893570  38.0485903  28.1226569  56.9196958  37.7871191  28.6834272
  55.5800515  37.3114625  28.1628637  54.2708867  36.1893766  28.7201020
  53.5442031  36.0549730  28.1117512  53.8556154  36.4970594  29.5257738
  42.0939043  39.9083695  36.4848393  43.0142053  40.0862294  36.6788440
  42.0588626  38.9639741  36.3328092  40.3943268  33.7815925  14.9602621
  39.4874723  33.4849038  15.0365335  40.6719249  33.4845744  14.0936908
  31.3121208  35.1022289  25.4101668  30.9923993  34.2487597  25.1176042
  30.7654637  35.3170867  26.1659635  35.0901116  37.8184730  29.1271174
  35.3087126  38.7501838  29.1459208  35.5026890  37.4592704  29.9125978
  42.0105334  28.3252815  21.1146863  41.2006062  27.9799900  21.4902109
  42.6989751  28.0160359  21.7034474  43.9395882  27.4030862  22.7371159
  44.4926921  27.8226315  23.3961182  44.1765968  26.4766610  22.7794115
  39.9628981  33.3917936  38.5173923  39.8625708  34.3412293  38.4486014
  39.7450523  33.0636175  37.6449993  39.1642053  30.6402861  15.1014601
  40.0261217  30.9657759  15.3610418  39.3492397  29.8534357  14.5887666
  31.1809468  38.7225200  27.3794789  30.4872940  38.3079153  26.8664744
  31.9282459  38.7645737  26.7828208  47.3174689  29.5131387  22.2449824
  46.7373358  30.1716191  21.8627876  47.0510622  28.6908732  21.8337241
  45.7678256  28.9136445  24.4471144  46.2678034  29.0252979  23.6385463
  46.4113863  28.6097498  25.0871952  39.8260251  36.8215074  37.3338985
  39.3427333  37.6215435  37.5402874  39.9121190  36.8323019  36.3806429
  33.0946211  38.6543454  25.2560804  33.0716899  38.7531141  24.3042687
  33.4046847  39.5008605  25.5777970  35.7533589  40.7119609  29.3707419
  36.7076842  40.6803552  29.3037350  35.5546112  40.2510233  30.1857645
  36.3432971  39.2820725  31.9378216  37.1625860  39.7764804  31.9613054
  36.6169779  38.3652693  31.9095784  46.0999567  31.6731478  21.3006172
  45.2125422  31.9581128  21.0826367  46.5153556  31.5125241  20.4533449
  49.4514103  31.6977999  25.0160511  50.2274493  32.1874451  25.2885128
  48.7262237  32.1236053  25.4732381  51.8886662  32.4105618  26.0734452
  52.4831153  32.1701354  25.3627760  51.9613246  31.6912748  26.7007988
  34.1083818  46.2539229  26.3877617  33.9738286  45.4939630  25.8215615
  33.6915880  46.9780129  25.9206405  45.2442781  41.4376152  15.3954192
  45.9478631  41.6426155  16.0111847  44.5205429  42.0052914  15.6603275
  46.0740591  37.1886013  21.5156462  46.0175792  37.6454565  20.6764094
  46.6268933  36.4276698  21.3379305  49.8845397  32.9775745  22.3406581
  49.6282331  32.5772381  23.1714789  49.2598265  33.6919539  22.2156721
  54.1957735  35.7171819  24.8477873  53.6357293  35.7865008  25.6209435
  53.5901238  35.5412803  24.1277369  37.2652943  47.1508546  26.5996059
  37.1485328  48.0953978  26.4974749  36.4445390  46.8482107  26.9881858
  47.1529478  41.8758681  17.4452652  47.9875082  41.4439880  17.2630127
  46.9913821  41.7040695  18.3729546  46.8075370  38.3790795  18.8108991
  46.7524174  38.2135066  17.8697435  46.1821425  39.0866828  18.9671181
  31.5967885  33.6158859  32.6370413  32.2426749  33.1057813  33.1257639
  31.3885036  34.3527541  33.2113839  44.1221277  40.6839707  38.1362554
  44.9912437  40.8580359  37.7749189  43.6428029  41.5034123  38.0138283
  40.1171496  27.8798904  18.3894310  40.1050166  28.8240744  18.5462580
  41.0094918  27.6969049  18.0953771  38.2907458  47.8036808  29.8151988
  39.1934704  47.8360418  30.1318483  38.0644828  46.8737259  29.8298323
  40.0461060  46.5567794  26.4762066  39.0956691  46.5569656  26.3626439
  40.3493546  45.8100529  25.9598101  43.9323615  24.4741680  22.6440246
  43.1656011  23.9200167  22.7896929  44.3434320  24.5463549  23.5054398
  35.9365376  30.7626476  36.7345428  36.7996838  30.4063281  36.9448752
  35.3630787  30.4240371  37.4220832  55.7813753  52.3928333  27.5407829
  56.4192163  52.2735080  26.8371169  55.6634596  53.3409176  27.5995781
  52.5903459  52.3455761  27.4769353  52.2521971  52.2296825  26.5889888
  53.4593228  51.9446926  27.4570359  48.4490275  54.1991237  23.4666244
  47.8855140  54.1081174  22.6982532  48.3342670  53.3791141  23.9468737
  53.0723242  53.4990612  33.4355559  53.0611883  53.1043411  32.5636063
  53.2343882  52.7656685  34.0289330  45.9954707  55.6942429  26.3050465
  46.7875999  55.3533253  25.8896764  46.2351357  55.8037404  27.2252618
  54.0289834  57.8662205  18.7780709  53.3777814  58.4516285  18.3914723
  54.8234197  58.3968400  18.8375747  47.9545461  54.9551342  19.1767844
  48.7276337  54.4080329  19.0380719  48.3070860  55.8195591  19.3882305
  49.7930504  56.2827724  32.3834743  49.5020370  57.1873355  32.2681409
  50.4287488  56.3244252  33.0978812  50.7186710  53.6604573  28.9736102
  51.3150283  53.4360595  28.2593065  50.7761682  52.9189318  29.5761550
  50.2911739  51.1144008  16.8086293  50.5437259  50.5925529  16.0469756
  49.3536298  50.9510153  16.9112977  55.3355022  50.1179786  24.6161037
  56.1218111  49.6999210  24.2651454  55.5993726  51.0225879  24.7842685
  55.5065099  55.5552637  19.3149693  54.8710932  55.6287263  20.0270598
  55.1762505  56.1446236  18.6368773  60.7363449  50.0555020  25.5194015
  61.4688621  49.4854236  25.7531845  59.9802804  49.6676620  25.9600521
  50.0108028  53.0172114  19.0110668  49.8944286  52.3417017  19.6791753
  50.1210287  52.5304488  18.1942821  52.3539568  52.4782261  22.7157358
  51.9897776  51.9512882  23.4270279  53.2106684  52.0880730  22.5423843
  58.2588869  43.7676594  29.9788624  57.9272194  44.6372005  29.7549839
  57.6634482  43.4512878  30.6582654  51.9945055  47.5072161  17.7118706
  52.1619458  48.3752397  18.0789177  51.8042225  47.6699442  16.7879995
  54.7520389  55.9689140  29.3784537  54.4521112  56.8714178  29.2700344
  54.4071448  55.7021323  30.2305689  48.2032870  52.4202937  25.4121241
  47.2783367  52.2879151  25.6198933  48.4517283  53.1997156  25.9091183
  58.1517532  48.4871680  27.0581974  57.2434410  48.4187088  26.7640735
  58.1005128  48.9643625  27.8863799  51.9734276  49.9629818  18.6965373
  51.8533902  50.4086869  19.5350853  51.2786865  50.3115136  18.1378911
  45.5641681  52.0636210  26.2465030  45.6934062  52.3170689  27.1604442
  44.8839132  52.6563918  25.9269685  49.7341168  62.7333460  22.3455504
  49.6565198  63.6841285  22.4243985  49.1302812  62.3879333  23.0030431
  52.2258398  49.9061325  35.0016871  51.4491732  50.4655246  34.9919736
  52.8648961  50.3918108  35.5231741  60.0179179  46.6888118  28.8359848
  59.3753559  46.9820651  28.1899642  59.5134107  46.5741039  29.6413044
  57.6719342  50.4351291  19.5245707  58.5837199  50.6678678  19.3493405
  57.1628990  51.0188336  18.9620786  52.3091180  49.7948526  30.5340557
  53.1552375  50.2187940  30.6775206  52.2489818  49.1382150  31.2279120
  56.2788925  55.4177110  26.9159288  55.6497787  55.5822824  26.2135356
  55.8914587  55.8318719  27.6870253  60.1578157  56.3531548  24.2703652
  59.4729195  56.7330449  23.7200686  60.2422006  56.9626874  25.0035600
  55.4590626  47.4552894  32.1921730  55.2151557  48.2094955  31.6556006
  55.7350556  47.8338242  33.0268977  57.4129088  53.9991507  30.8698996
  57.6245984  54.6423267  30.1933377  57.3658837  53.1653823  30.4020926
  55.0155317  46.6109327  27.7735568  54.1539796  46.9090581  28.0652305
  55.0417752  46.8279726  26.8416601  51.8316887  55.1551518  24.1809374
  52.2955232  55.4339221  23.3913996  51.5673685  54.2534963  23.9982464
  48.7240968  54.7023000  27.1189137  49.2942325  55.1310268  26.4806621
  49.3149080  54.4205584  27.8173323  50.7685773  51.2774670  20.9898939
  51.4709816  51.7295714  21.4572865  50.4366401  50.6358489  21.6178832
  49.2166134  49.8686427  35.3650148  48.5864795  50.5502708  35.5985545
  49.1102222  49.7569509  34.4203286  44.5111107  49.5358223  26.2916072
  43.7210161  49.7915752  25.8156183  45.0022354  50.3506561  26.3968113
  58.5274916  56.8763462  29.0421353  59.3492360  56.4743649  28.7604035
  58.5237319  56.7731696  29.9937469  46.4625852  49.9002802  23.2499549
  45.6657015  50.0121497  23.7683045  46.2351444  50.2389454  22.3840440
  52.2931520  56.4247505  31.1982064  52.3575952  56.8867913  32.0340235
  51.5842444  55.7944870  31.3264373  42.7948810  49.7888713  28.7231063
  43.0456848  50.6735723  28.9888639  43.3308358  49.6093315  27.9506155
  52.0079537  58.0915613  21.0661044  51.8725212  58.9367149  21.4945892
  52.5489350  58.2934891  20.3026978  48.4946877  44.1707193  37.7275399
  48.1013823  43.6173391  38.4023043  49.3113017  44.4817771  38.1181917
  45.4608935  55.6091051  21.6388969  45.9733455  56.4034301  21.7894534
  46.1131648  54.9117341  21.5722570  47.2703819  58.7256807  23.7211722
  47.4470448  59.6474772  23.5332706  48.0660653  58.4115227  24.1506102
  51.4114838  45.5865072  35.3195656  52.1524551  46.1872225  35.2400118
  51.6432761  44.8442710  34.7613698  46.5556176  50.7721439  33.5973885
  46.4409691  49.8706696  33.8980984  45.7000694  51.0185136  33.2458702
  48.3935135  60.2434981  29.7222065  48.9442560  60.1152044  28.9499058
  47.5546611  60.5429870  29.3716957  52.1902306  56.5086109  34.0666296
  52.7230643  55.7474397  33.8365604  51.6616387  56.2159761  34.8090450
  55.3572001  41.6146175  29.5959937  55.0136270  42.5047817  29.5199048
  55.7250964  41.4247832  28.7329522  43.4257852  53.9379705  22.4148540
  44.2633074  54.3476714  22.1982247  43.6036119  52.9979147  22.3848733
  55.3222284  51.6054786  18.1032373  54.8068907  52.3759391  18.3420760
  55.0499592  50.9319922  18.7265434  52.9069395  46.4504487  23.1617611
  52.0510991  46.0611337  22.9823250  53.3196346  46.5296448  22.3017396
  54.4368541  43.9850830  27.5609171  53.9333337  43.9480965  26.7476976
  54.7299148  44.8943573  27.6205827  50.6811427  44.0689560  26.5675352
  51.5464424  43.8732368  26.2081242  50.7488936  43.8399912  27.4944709
  60.2956558  54.3587141  20.0385546  59.5186001  54.0198300  19.5940708
  60.9748039  54.3639764  19.3640511  55.1108587  49.4781878  19.9292154
  54.8058722  49.7928027  20.7802297  56.0639029  49.5563298  19.9719487
  53.5555019  55.6372101  21.5785108  53.0276380  54.9024861  21.2658345
  53.0542521  56.4146778  21.3325076  58.5347865  53.8321122  26.6952154
  57.8771539  54.5220383  26.7832283  59.3388264  54.2217554  27.0386140
  48.2873746  46.2991768  23.9391719  48.8617498  46.0766949  23.2064912
  48.8744729  46.3680462  24.6920320  57.3453323  52.1865495  24.7456096
  57.8585205  52.8195486  25.2477805  57.9954547  51.5866690  24.3799456
  48.6143333  48.3296229  17.9587604  47.7780646  48.6670915  18.2796879
  48.4748103  48.1945208  17.0214741  50.5896414  43.1733017  22.6666789
  49.9360826  42.8582034  22.0423403  50.5476888  42.5508757  23.3926612
  51.7007619  53.4552312  14.5820081  50.7934681  53.2241565  14.7811230
  52.1978651  52.6589931  14.7694062  54.6075698  62.1649819  17.5016767
  53.9337396  62.4681516  18.1101725  54.9941520  62.9678899  17.1522224
  53.8234154  49.6614950  26.9914436  52.9056716  49.8829897  26.8336124
  54.2394298  49.7361261  26.1326144  54.6069202  51.0606366  22.1217117
  55.3541021  51.5727763  21.8124239  54.8760792  50.7390419  22.9821510
  52.8795852  53.5564907  19.1044071  51.9707072  53.2723939  19.2016541
  52.9090936  53.9763985  18.2447378  58.1115120  57.1671496  22.8735238
  57.6577447  56.3262406  22.9300429  57.4809086  57.8032894  23.2110019
  57.0548039  48.0963482  24.1035906  56.3170796  47.5840868  24.4346148
  57.3074813  47.6563864  23.2919183  56.5548059  59.0047993  23.8085057
  56.8471033  59.5653050  23.0897422  57.0646679  59.2976554  24.5638216
  57.1559667  40.8739734  24.6977675  57.4618543  40.0137097  24.4103590
  57.8812271  41.4657354  24.4976669  43.4484023  51.2770421  23.0859273
  43.2508422  50.6839781  22.3610340  42.8930687  50.9722631  23.8035212
  51.4280746  51.1693527  25.2053866  51.4829356  50.2167364  25.1296343
  50.6171948  51.3252966  25.6895165  52.5771940  55.0973650  16.4432149
  52.1391370  54.3809509  15.9837787  53.3182381  55.3249765  15.8817241
  49.3673106  49.7870587  22.9644245  48.5540972  50.0864757  23.3709437
  49.8632100  49.3926276  23.6818727  51.5181684  59.7828344  24.8978510
  51.4757863  60.0089190  23.9687042  52.4344383  59.5491718  25.0464311
  54.9647318  50.2512411  31.7959139  55.3196706  50.4783884  32.6553605
  55.6119449  50.5830788  31.1736394  60.6945055  53.3730847  22.5008468
  60.5562953  53.5632443  21.5729657  60.3381274  54.1350230  22.9576519
  48.8587181  47.3588942  28.5805480  49.4986560  47.2177701  27.8828443
  48.0264712  47.0723456  28.2044082  49.6347485  56.6591373  24.6940472
  50.4288083  56.1641693  24.4923047  48.9239177  56.1309236  24.3308178
  54.4542329  59.0409468  29.0452840  54.5079352  59.6100405  29.8130556
  53.5857111  59.2111353  28.6806877  45.9430248  50.8034455  20.7700225
  45.0127836  50.7418910  20.9870187  46.0387720  50.2810407  19.9736866
  45.8615797  47.3289267  23.3578467  46.1222615  48.2434601  23.2487627
  46.6832970  46.8613710  23.5075080  47.3340723  48.7427025  30.5277291
  48.0063776  48.5344387  29.8789940  46.5070509  48.5449111  30.0882524
  53.2366295  45.3688965  32.5442952  52.5894210  46.0678915  32.4507429
  54.0067310  45.8025109  32.9119200  53.4130429  53.2069730  30.6039772
  54.3422489  53.3580890  30.4308739  52.9921459  53.2953751  29.7488418
  52.2118761  57.2320395  28.3738310  52.0729847  56.8639179  29.2464248
  51.4233357  57.7468034  28.2022267  52.8066913  62.3329491  19.7163846
  52.9818669  61.8617534  20.5309469  52.1199701  62.9595257  19.9445107
  53.7623976  56.6101997  25.7627147  53.4273809  56.5702767  26.6584797
  53.2627922  55.9446713  25.2897558  47.7368220  52.0169628  31.2879728
  47.5988018  51.2849866  31.8891268  48.6473143  51.9278528  31.0063916
  56.6983168  53.9558032  16.0364207  56.0812338  53.2304860  15.9397260
  56.2299656  54.7167392  15.6931281  50.3650521  51.7289587  30.7763408
  51.0750139  51.0882779  30.7350027  50.3219829  51.9802482  31.6989589
  49.0779455  48.7154805  32.5959048  48.5416812  48.2645543  33.2480644
  48.4896163  48.8500714  31.8529512  47.3727998  65.4818854  26.4903706
  47.6124596  66.1137378  27.1682725  46.5297195  65.1306894  26.7769065
  48.4881714  48.1743456  15.1585511  47.6111180  48.0532257  14.7947758
  48.9639467  47.3829534  14.9064400  58.3554707  56.6296524  31.9283967
  57.4681485  56.2922446  32.0510366  58.9253258  55.8979555  32.1652732
  40.0083854  52.9620616  25.2527018  40.6954894  52.6482346  24.6648034
  39.8531982  53.8661980  24.9794270  44.8118576  47.8510812  29.6812042
  44.7276765  47.2436482  28.9462452  43.9901282  48.3419831  29.6821538
  51.8855860  61.2897976  28.8945210  51.8126031  62.0952948  29.4064515
  51.4433253  61.4889942  28.0693232  51.6745640  60.5269746  22.4048032
  50.8913162  61.0691427  22.4986256  52.3738385  61.0443726  22.8042273
  54.9842290  46.3364376  25.0482237  55.4810989  45.5834338  24.7283307
  54.2129271  46.3728693  24.4825446  54.3454544  61.1884810  31.0503369
  55.0582516  61.8232275  30.9779270  53.8544572  61.2848676  30.2343371
  56.0672070  55.0936063  22.6220661  55.1328349  55.2137526  22.4525365
  56.2448739  54.1908530  22.3580670  51.5677258  48.4781759  24.7753922
  51.1975046  47.9252799  25.4634827  52.0636351  47.8739892  24.2228922
  59.4544622  50.9353382  23.1570695  59.9205074  51.7681374  23.0830997
  59.9052122  50.4698364  23.8615953  49.3966457  58.9379254  31.8708940
  50.0975917  59.5715737  32.0238334  48.9261572  59.2793985  31.1104579
  57.5220853  57.2797204  20.1556847  57.7980697  57.1653798  21.0650721
  56.6525352  56.8814689  20.1169020  57.4261285  43.3033969  27.1961596
  56.5124364  43.5338196  27.3643803  57.8554386  43.3872414  28.0475628
  57.1967743  51.4923861  29.6961490  56.5439193  51.7399769  29.0413943
  57.5748123  50.6788000  29.3623967  54.1574917  61.5283555  23.7989660
  54.3397311  60.7105211  24.2617413  54.9807903  61.7451247  23.3614550
  54.4917082  60.4551740  21.0604709  55.0204849  59.9444194  20.4474871
  54.7545302  60.1394270  21.9250242  53.2455316  52.2343672  36.1827527
  52.5695953  52.1337802  36.8529902  54.0682950  52.0782886  36.6463524
  44.9934175  58.4715609  28.8040042  45.5787612  57.7259297  28.9367947
  44.7959014  58.7819566  29.6876706  47.8472830  61.5066856  23.8202485
  47.1783206  61.9912984  23.3366525  47.7085700  61.7536077  24.7345863
  39.5851830  51.0421209  27.5244486  39.6235929  50.5084800  28.3181604
  39.0792123  50.5156415  26.9055463  51.9878099  63.5410600  30.4185143
  52.5396407  63.7042221  31.1834228  52.3284292  64.1315038  29.7465168
  46.9642592  45.8885750  31.0207028  47.0283919  46.7500581  30.6084426
  46.9009712  45.2759751  30.2879386  46.4394865  47.9608882  34.6680062
  47.0666903  47.5785960  35.2817586  45.5822784  47.7423084  35.0335755
  43.2160407  49.7685311  20.5998417  43.5113849  48.8595990  20.5465471
  42.3148443  49.7473051  20.2779419  55.1246486  61.4892575  27.4048825
  54.9997626  60.6882315  26.8959771  55.7825577  61.9838769  26.9162795
  46.7454654  47.8441308  26.5825966  46.0241240  48.4577276  26.4433439
  47.5347910  48.3799073  26.5042611  49.5480968  45.1795734  32.8566617
  50.0715370  45.4258031  33.6192927  49.3293301  46.0115769  32.4369755
  44.9448249  47.4499409  20.7237742  44.6160955  46.5696788  20.5412848
  45.2987620  47.3947078  21.6114131  54.1927828  59.0854312  25.2332728
  54.0452790  58.1571019  25.4140298  55.0181321  59.1074402  24.7489803
  48.0590072  47.7372379  21.0913220  48.3986145  48.2658300  20.3691828
  48.5062193  48.0752785  21.8671786  57.7961950  59.9082870  26.3197600
  58.7208497  59.7025732  26.1822051  57.6277253  59.6599272  27.2286942
  50.7533513  46.1209430  30.5416288  50.4130333  45.3217243  30.9436968
  50.0472519  46.4211140  29.9693121  51.4049985  43.2058742  28.9943611
  52.2276054  42.7319220  28.8722501  51.6488048  43.9849226  29.4942297
  50.0458219  46.2347000  19.2906512  50.7666582  46.6128253  18.7870229
  49.4223523  46.9535877  19.3941490  54.1889342  46.9392149  20.2264845
  54.4052957  47.8216787  19.9253673  53.7083409  46.5478363  19.4970487
  48.9288564  49.8977863  26.8035589  48.7833144  50.2118166  27.6959871
  48.4513767  50.5162763  26.2506488  50.7884946  46.8880411  26.8516479
  50.7746515  45.9921504  26.5148777  51.5057375  46.8951074  27.4854765
  52.6411077  47.3217751  28.8969606  52.3828855  48.2434821  28.8953937
  52.1096118  46.9248185  29.5870071  57.5857266  60.4268538  21.6759692
  57.7594143  59.8614960  20.9233544  58.0786157  61.2269433  21.4939182
  43.4034226  52.4383207  29.7423251  42.8587694  53.2143015  29.8743525
  44.2813576  52.7854011  29.5842372  50.1921842  45.7694791  22.1204049
  50.3137754  44.8411437  22.3194937  49.9023885  45.7833477  21.2082365
  53.0613033  43.4549701  25.2570769  53.0834730  43.5189034  24.3022749
  53.4781092  42.6154210  25.4511275  58.5732438  59.7435302  18.7756590
  59.2683343  60.3641995  18.9943905  58.9155589  58.8930654  19.0508968
  44.1900248  51.5653103  32.6353407  43.4481984  51.7135739  33.2218038
  43.8692992  51.8261369  31.7720157  60.4723862  57.1935008  20.3043921
  60.9975186  57.5322281  19.5793241  60.3846214  56.2582023  20.1207055
  52.1343910  61.1069082  32.4333797  52.4431037  60.8618228  33.3056497
  52.9319392  61.3115720  31.9452668  52.1564522  63.2606991  24.6639174
  51.7169513  62.7683370  25.3572031  52.9072639  62.7179959  24.4231249
  44.6356861  59.4518532  24.6663802  45.4614881  59.1522304  24.2862446
  44.2850913  58.6826154  25.1153591  49.6038394  58.8045000  26.7361476
  48.9818404  58.1415705  26.4363704  50.2743261  58.8306132  26.0535123
  42.8365466  57.3704858  25.6252736  41.9997375  56.9427033  25.4436737
  42.8089112  57.5637302  26.5623527  49.6762922  47.2826788  36.3293982
  49.7251077  48.1588911  35.9471751  50.2185436  46.7404181  35.7565625
  60.2815643  54.6760378  32.9227847  60.3313648  54.5110385  33.8643370
  60.1729566  53.8087637  32.5325728  49.1651901  57.3548924  20.2119936
  49.3140022  58.0384388  19.5586609  49.9718345  57.3354014  20.7269392
  57.5719405  50.6591306  34.2387154  58.4729268  50.5197771  33.9471152
  57.6467380  50.8245761  35.1785331  51.9062210  48.0358161  33.0840340
  51.0365520  48.3291727  32.8122929  52.1421691  48.6198606  33.8047604
  60.0321028  52.2189934  31.6349927  60.5075149  52.4117580  30.8268778
  59.1086593  52.2749120  31.3893311  46.9204534  53.3814101  21.2181005
  46.6750576  52.4776431  21.4161215  47.0900449  53.3831252  20.2760483
  54.6101244  44.2537778  30.6005761  55.1283188  44.9898805  30.2752249
  54.2556377  44.5601771  31.4352520  46.1900182  49.1142459  18.7167167
  45.4969427  49.1886814  18.0607203  45.9451934  48.3502802  19.2388684
  54.8613838  40.6738060  26.1206657  55.1415592  40.0061249  26.7467084
  55.6464445  40.8667156  25.6081321  52.6647307  59.8497054  17.6831684
  52.0921274  60.4687241  17.2302156  53.2380101  60.3996416  18.2171606
  58.7322697  49.0955694  29.8678232  59.6840120  49.1953792  29.8890457
  58.5626147  48.3033963  30.3776317  56.7537076  46.1811277  30.0537633
  56.1587008  46.4616290  29.3584122  56.4686773  46.6705178  30.8254374
  55.8844567  60.1334204  18.8140266  56.8175240  60.0679766  19.0173141
  55.7967779  60.9690471  18.3554799  58.5132583  59.4500074  15.7744214
  58.4346215  59.1159938  16.6679971  59.3342250  59.9421842  15.7735686
  61.2110775  52.3161814  28.9820532  61.1787095  51.3777815  29.1680216
  61.8211398  52.3945851  28.2486357  53.0494105  51.1857867  15.0247736
  53.9953210  51.0564075  15.0936154  52.6708350  50.4472529  15.5017164
  61.3605263  49.1072857  29.0278815  60.8444312  48.3231314  28.8408744
  62.2445212  48.7791574  29.1925335  59.0215990  42.8513873  24.9874628
  58.8240811  42.5428961  25.8717960  59.6315696  43.5775512  25.1172558
  52.9332798  55.2375613  36.4848393  53.8535807  55.4154212  36.6788440
  52.8982381  54.2931658  36.3328092  51.2337023  49.1107843  14.9602621
  50.3268478  48.8140956  15.0365335  51.5113004  48.8137661  14.0936908
  42.1514963  50.4314207  25.4101668  41.8317747  49.5779515  25.1176042
  41.6048391  50.6462785  26.1659635  45.9294870  53.1476648  29.1271174
  46.1480880  54.0793755  29.1459208  46.3420644  52.7884622  29.9125978
  52.8499088  43.6544733  21.1146863  52.0399817  43.3091818  21.4902109
  53.5383505  43.3452277  21.7034474  54.7789637  42.7322780  22.7371159
  55.3320675  43.1518233  23.3961182  55.0159723  41.8058528  22.7794115
  50.8022736  48.7209853  38.5173923  50.7019463  49.6704210  38.4486014
  50.5844278  48.3928092  37.6449993  50.0035807  45.9694778  15.1014601
  50.8654971  46.2949677  15.3610418  50.1886151  45.1826274  14.5887666
  42.0203223  54.0517118  27.3794789  41.3266694  53.6371071  26.8664744
  42.7676214  54.0937655  26.7828208  58.1568444  44.8423305  22.2449824
  57.5767113  45.5008109  21.8627876  57.8904376  44.0200649  21.8337241
  56.6072010  44.2428363  24.4471144  57.1071788  44.3544897  23.6385463
  57.2507618  43.9389415  25.0871952  50.6654006  52.1506992  37.3338985
  50.1821088  52.9507352  37.5402874  50.7514945  52.1614937  36.3806429
  43.9339965  53.9835372  25.2560804  43.9110654  54.0823059  24.3042687
  44.2440602  54.8300523  25.5777970  46.5927343  56.0411527  29.3707419
  47.5470597  56.0095469  29.3037350  46.3939867  55.5802151  30.1857645
  47.1826725  54.6112643  31.9378216  48.0019614  55.1056722  31.9613054
  47.4563533  53.6944611  31.9095784  56.9393322  47.0023395  21.3006172
  56.0519177  47.2873046  21.0826367  57.3547311  46.8417159  20.4533449
  60.2907858  47.0269916  25.0160511  61.0668248  47.5166369  25.2885128
  59.5655992  47.4527970  25.4732381  62.7280416  47.7397535  26.0734452
  63.3224907  47.4993271  25.3627760  62.8007000  47.0204666  26.7007988
  44.9477572  61.5831146  26.3877617  44.8132040  60.8231547  25.8215615
  44.5309634  62.3072046  25.9206405  56.0836535  56.7668070  15.3954192
  56.7872385  56.9718072  16.0111847  55.3599184  57.3344832  15.6603275
  56.9134345  52.5177931  21.5156462  56.8569547  52.9746483  20.6764094
  57.4662688  51.7568616  21.3379305  60.7239151  48.3067663  22.3406581
  60.4676086  47.9064299  23.1714789  60.0992019  49.0211457  22.2156721
  48.1046698  62.4800463  26.5996059  47.9879082  63.4245896  26.4974749
  47.2839144  62.1774025  26.9881858  57.9923233  57.2050599  17.4452652
  58.8268836  56.7731798  17.2630127  57.8307575  57.0332613  18.3729546
  57.6469125  53.7082712  18.8108991  57.5917928  53.5426984  17.8697435
  57.0215180  54.4158745  18.9671181  42.4361640  48.9450777  32.6370413
  43.0820503  48.4349731  33.1257639  42.2278791  49.6819458  33.2113839
  50.9565250  43.2090821  18.3894310  50.9443920  44.1532661  18.5462580
  51.8488672  43.0260967  18.0953771  49.1301212  63.1328725  29.8151988
  50.0328459  63.1652336  30.1318483  48.9038582  62.2029176  29.8298323
  50.8854814  61.8859712  26.4762066  49.9350445  61.8861573  26.3626439
  51.1887300  61.1392446  25.9598101  54.7717370  39.8033598  22.6440246
  54.0049765  39.2492085  22.7896929  55.1828075  39.8755467  23.5054398
  46.7759131  46.0918394  36.7345428  47.6390592  45.7355199  36.9448752
  46.2024541  45.7532289  37.4220832  59.2884030  69.5283155  23.4666244
  58.7248895  69.4373092  22.6982532  59.1736425  68.7083059  23.9468737
  56.8348462  71.0234346  26.3050465  57.6269753  70.6825171  25.8896764
  57.0745112  71.1329321  27.2252618  64.8683588  73.1954122  18.7780709
  64.2171568  73.7808203  18.3914723  65.6627951  73.7260317  18.8375747
  58.7939215  70.2843260  19.1767844  59.5670091  69.7372247  19.0380719
  59.1464614  71.1487509  19.3882305  61.5580465  68.9896490  28.9736102
  62.1544037  68.7652513  28.2593065  61.6155436  68.2481236  29.5761550
  61.1305493  66.4435926  16.8086293  61.3831014  65.9217447  16.0469756
  60.1930052  66.2802071  16.9112977  66.3458853  70.8844554  19.3149693
  65.7104686  70.9579181  20.0270598  66.0156260  71.4738153  18.6368773
  60.8501782  68.3464032  19.0110668  60.7338040  67.6708935  19.6791753
  60.9604042  67.8596406  18.1942821  63.1933323  67.8074179  22.7157358
  62.8291530  67.2804800  23.4270279  64.0500439  67.4172648  22.5423843
  62.8338810  62.8364078  17.7118706  63.0013212  63.7044315  18.0789177
  62.6435979  62.9991360  16.7879995  59.0426625  67.7494854  25.4121241
  58.1177121  67.6171068  25.6198933  59.2911038  68.5289073  25.9091183
  62.8128031  65.2921736  18.6965373  62.6927656  65.7378787  19.5350853
  62.1180619  65.6407054  18.1378911  56.4035436  67.3928128  26.2465030
  56.5327817  67.6462607  27.1604442  55.7232887  67.9855836  25.9269685
  60.5734923  78.0625378  22.3455504  60.4958953  79.0133203  22.4243985
  59.9696567  77.7171250  23.0030431  68.5113097  65.7643209  19.5245707
  69.4230953  65.9970596  19.3493405  68.0022744  66.3480253  18.9620786
  67.1182679  70.7469028  26.9159288  66.4891542  70.9114742  26.2135356
  66.7308341  71.1610637  27.6870253  70.9971911  71.6823465  24.2703652
  70.3122949  72.0622367  23.7200686  71.0815760  72.2918792  25.0035600
  62.6710641  70.4843436  24.1809374  63.1348987  70.7631139  23.3913996
  62.4067439  69.5826880  23.9982464  59.5634722  70.0314917  27.1189137
  60.1336079  70.4602186  26.4806621  60.1542834  69.7497502  27.8173323
  61.6079527  66.6066588  20.9898939  62.3103571  67.0587632  21.4572865
  61.2760156  65.9650407  21.6178832  55.3504861  64.8650141  26.2916072
  54.5603915  65.1207669  25.8156183  55.8416109  65.6798479  26.3968113
  69.3668671  72.2055380  29.0421353  70.1886114  71.8035567  28.7604035
  69.3631074  72.1023614  29.9937469  57.3019607  65.2294720  23.2499549
  56.5050770  65.3413414  23.7683045  57.0745199  65.5681372  22.3840440
  53.6342564  65.1180631  28.7231063  53.8850603  66.0027641  28.9888639
  54.1702113  64.9385233  27.9506155  77.4574664  68.5494128  25.3906325
  76.7038372  67.9801526  25.2350329  77.5922205  68.5156793  26.3376959
  62.8473292  73.4207531  21.0661044  62.7118967  74.2659066  21.4945892
  63.3883104  73.6226808  20.3026978  56.3002689  70.9382969  21.6388969
  56.8127210  71.7326219  21.7894534  56.9525402  70.2409259  21.5722570
  58.1097574  74.0548725  23.7211722  58.2864202  74.9766690  23.5332706
  58.9054407  73.7407144  24.1506102  59.2328889  75.5726899  29.7222065
  59.7836315  75.4443962  28.9499058  58.3940365  75.8721788  29.3716957
  54.2651606  69.2671623  22.4148540  55.1026828  69.6768631  22.1982247
  54.4429874  68.3271065  22.3848733  66.1616038  66.9346704  18.1032373
  65.6462662  67.7051308  18.3420760  65.8893347  66.2611840  18.7265434
  63.7463149  61.7796404  23.1617611  62.8904745  61.3903255  22.9823250
  64.1590101  61.8588365  22.3017396  61.5205182  59.3981477  26.5675352
  62.3858178  59.2024286  26.2081242  61.5882691  59.1691829  27.4944709
  71.1350312  69.6879058  20.0385546  70.3579755  69.3490218  19.5940708
  71.8141793  69.6931681  19.3640511  65.9502341  64.8073796  19.9292154
  65.6452477  65.1219945  20.7802297  66.9032783  64.8855216  19.9719487
  64.3948773  70.9664019  21.5785108  63.8670135  70.2316779  21.2658345
  63.8936276  71.7438695  21.3325076  59.1267501  61.6283685  23.9391719
  59.7011253  61.4058867  23.2064912  59.7138483  61.6972380  24.6920320
  59.4537088  63.6588146  17.9587604  58.6174400  63.9962833  18.2796879
  59.3141858  63.5237126  17.0214741  61.4290168  58.5024934  22.6666789
  60.7754581  58.1873951  22.0423403  61.3870643  57.8800675  23.3926612
  62.5401373  68.7844229  14.5820081  61.6328435  68.5533483  14.7811230
  63.0372405  67.9881849  14.7694062  65.4469452  77.4941737  17.5016767
  64.7731151  77.7973433  18.1101725  65.8335274  78.2970817  17.1522224
  65.4462957  66.3898283  22.1217117  66.1934776  66.9019681  21.8124239
  65.7154546  66.0682336  22.9821510  63.7189607  68.8856824  19.1044071
  62.8100826  68.6015857  19.2016541  63.7484691  69.3055903  18.2447378
  68.9508874  72.4963414  22.8735238  68.4971201  71.6554324  22.9300429
  68.3202841  73.1324812  23.2110019  67.3941813  74.3339910  23.8085057
  67.6864788  74.8944967  23.0897422  67.9040434  74.6268471  24.5638216
  54.2877777  66.6062338  23.0859273  54.0902177  66.0131699  22.3610340
  53.7324441  66.3014548  23.8035212  62.2674501  66.4985445  25.2053866
  62.3223111  65.5459281  25.1296343  61.4565703  66.6544884  25.6895165
  63.4165695  70.4265568  16.4432149  62.9785124  69.7101427  15.9837787
  64.1576135  70.6541683  15.8817241  60.2066861  65.1162505  22.9644245
  59.3934726  65.4156675  23.3709437  60.7025855  64.7218193  23.6818727
  62.3575439  75.1120261  24.8978510  62.3151617  75.3381108  23.9687042
  63.2738137  74.8783636  25.0464311  71.5338809  68.7022765  22.5008468
  71.3956708  68.8924361  21.5729657  71.1775028  69.4642148  22.9576519
  71.5608189  70.7699292  27.5119739  71.9944696  70.6774581  28.3602793
  72.2739770  70.7456792  26.8739755  60.4741239  71.9883290  24.6940472
  61.2681838  71.4933611  24.4923047  59.7632932  71.4601154  24.3308178
  65.2936084  74.3701386  29.0452840  65.3473106  74.9392322  29.8130556
  64.4250865  74.5403271  28.6806877  56.7824003  66.1326372  20.7700225
  55.8521591  66.0710828  20.9870187  56.8781475  65.6102325  19.9736866
  56.7009552  62.6581185  23.3578467  56.9616369  63.5726518  23.2487627
  57.5226724  62.1905628  23.5075080  58.1734477  64.0718942  30.5277291
  58.8457531  63.8636304  29.8789940  57.3464264  63.8741028  30.0882524
  63.0512515  72.5612312  28.3738310  62.9123601  72.1931097  29.2464248
  62.2627112  73.0759952  28.2022267  63.6460667  77.6621409  19.7163846
  63.8212423  77.1909452  20.5309469  62.9593455  78.2887175  19.9445107
  64.6017731  71.9393915  25.7627147  64.2667563  71.8994685  26.6584797
  64.1021676  71.2738631  25.2897558  58.5761974  67.3461545  31.2879728
  58.4381772  66.6141784  31.8891268  59.4866898  67.2570445  31.0063916
  67.5376922  69.2849949  16.0364207  66.9206093  68.5596778  15.9397260
  67.0693411  70.0459310  15.6931281  58.2121753  80.8110772  26.4903706
  58.4518351  81.4429296  27.1682725  57.3690949  80.4598812  26.7769065
  59.3275468  63.5035374  15.1585511  58.4504934  63.3824175  14.7947758
  59.8033221  62.7121452  14.9064400  50.8477608  68.2912534  25.2527018
  51.5348648  67.9774264  24.6648034  50.6925737  69.1953898  24.9794270
  55.6512330  63.1802730  29.6812042  55.5670519  62.5728400  28.9462452
  54.8295037  63.6711748  29.6821538  62.7249614  76.6189894  28.8945210
  62.6519786  77.4244866  29.4064515  62.2827008  76.8181860  28.0693232
  62.5139394  75.8561664  22.4048032  61.7306916  76.3983344  22.4986256
  63.2132139  76.3735644  22.8042273  65.1848298  76.5176728  31.0503369
  65.8976270  77.1524193  30.9779270  64.6938327  76.6140594  30.2343371
  66.9065825  70.4227981  22.6220661  65.9722104  70.5429443  22.4525365
  67.0842493  69.5200448  22.3580670  60.2360212  74.2671172  31.8708940
  60.9369671  74.9007655  32.0238334  59.7655327  74.6085903  31.1104579
  68.3614607  72.6089121  20.1556847  68.6374451  72.4945716  21.0650721
  67.4919106  72.2106606  20.1169020  64.9968671  76.8575472  23.7989660
  65.1791066  76.0397128  24.2617413  65.8201657  77.0743165  23.3614550
  65.3310837  75.7843657  21.0604709  65.8598603  75.2736112  20.4474871
  65.5939056  75.4686188  21.9250242  55.8327930  73.8007527  28.8040042
  56.4181366  73.0551215  28.9367947  55.6352768  74.1111483  29.6876706
  58.6866585  76.8358774  23.8202485  58.0176960  77.3204902  23.3366525
  58.5479455  77.0827995  24.7345863  50.4245584  66.3713127  27.5244486
  50.4629684  65.8376718  28.3181604  49.9185877  65.8448332  26.9055463
  62.8271853  78.8702518  30.4185143  63.3790161  79.0334139  31.1834228
  63.1678047  79.4606955  29.7465168  57.8036347  61.2177667  31.0207028
  57.8677673  62.0792498  30.6084426  57.7403467  60.6051669  30.2879386
  54.0554162  65.0977229  20.5998417  54.3507603  64.1887907  20.5465471
  53.1542198  65.0764968  20.2779419  65.9640241  76.8184493  27.4048825
  65.8391380  76.0174233  26.8959771  66.6219332  77.3130686  26.9162795
  57.5848409  63.1733226  26.5825966  56.8634995  63.7869193  26.4433439
  58.3741665  63.7090990  26.5042611  68.0275149  74.6193513  29.0328375
  67.0805485  74.4998864  28.9606702  68.3757922  73.7316011  29.1154637
  55.7842004  62.7791327  20.7237742  55.4554710  61.8988706  20.5412848
  56.1381374  62.7238995  21.6114131  65.0321582  74.4146229  25.2332728
  64.8846545  73.4862937  25.4140298  65.8575076  74.4366320  24.7489803
  58.8983827  63.0664296  21.0913220  59.2379899  63.5950218  20.3691828
  59.3455947  63.4044703  21.8671786  68.6355704  75.2374788  26.3197600
  69.5602252  75.0317649  26.1822051  68.4671008  74.9891189  27.2286942
  60.8851974  61.5638918  19.2906512  61.6060336  61.9420171  18.7870229
  60.2617278  62.2827795  19.3941490  65.0283097  62.2684067  20.2264845
  65.2446711  63.1508705  19.9253673  64.5477164  61.8770280  19.4970487
  59.7682318  65.2269780  26.8035589  59.6226899  65.5410083  27.6959871
  59.2907522  65.8454681  26.2506488  68.4251020  75.7560456  21.6759692
  68.5987898  75.1906878  20.9233544  68.9179912  76.5561350  21.4939182
  54.2427980  67.7675125  29.7423251  53.6981448  68.5434933  29.8743525
  55.1207330  68.1145929  29.5842372  61.0315597  61.0986709  22.1204049
  61.1531508  60.1703355  22.3194937  60.7417639  61.1125395  21.2082365
  74.2790412  68.5196879  23.2949992  74.7221558  67.7704204  22.8969115
  73.4016922  68.5107015  22.9123724  69.4126193  75.0727220  18.7756590
  70.1077098  75.6933913  18.9943905  69.7549343  74.2222571  19.0508968
  55.0294002  66.8945021  32.6353407  54.2875738  67.0427656  33.2218038
  54.7086746  67.1553287  31.7720157  71.3117616  72.5226926  20.3043921
  71.8368940  72.8614198  19.5793241  71.2239969  71.5873941  20.1207055
  62.9958277  78.5898909  24.6639174  62.5563267  78.0975288  25.3572031
  63.7466394  78.0471876  24.4231249  55.4750616  74.7810450  24.6663802
  56.3008636  74.4814222  24.2862446  55.1244668  74.0118072  25.1153591
  60.4432149  74.1336918  26.7361476  59.8212158  73.4707623  26.4363704
  61.1137016  74.1598050  26.0535123  53.6759221  72.6996776  25.6252736
  52.8391129  72.2718950  25.4436737  53.6482866  72.8929219  26.5623527
  60.0045656  72.6840841  20.2119936  60.1533776  73.3676306  19.5586609
  60.8112099  72.6645931  20.7269392  73.8223276  69.9902117  25.6872439
  74.6570168  70.4291921  25.8509999  73.9582405  69.5140770  24.8680685
  57.7598289  68.7106019  21.2181005  57.5144331  67.8068349  21.4161215
  57.9294203  68.7123169  20.2760483  57.0293936  64.4434376  18.7167167
  56.3363181  64.5178731  18.0607203  56.7845688  63.6794720  19.2388684
  63.5041061  75.1788972  17.6831684  62.9315028  75.7979159  17.2302156
  64.0773855  75.7288333  18.2171606  66.7238321  75.4626122  18.8140266
  67.6568994  75.3971683  19.0173141  66.6361534  76.2982389  18.3554799
  69.3526338  74.7791992  15.7744214  69.2739969  74.4451856  16.6679971
  70.1736005  75.2713760  15.7735686  72.0504529  67.6453731  28.9820532
  72.0180849  66.7069732  29.1680216  72.6605153  67.7237768  28.2486357
  63.8887860  66.5149784  15.0247736  64.8346965  66.3855993  15.0936154
  63.5102105  65.7764446  15.5017164  62.0730777  64.4399761  14.9602621
  61.1662232  64.1432874  15.0365335  62.3506758  64.1429579  14.0936908
  52.9908717  65.7606124  25.4101668  52.6711502  64.9071432  25.1176042
  52.4442146  65.9754702  26.1659635  56.7688625  68.4768565  29.1271174
  56.9874635  69.4085673  29.1459208  57.1814399  68.1176540  29.9125978
  63.6892843  58.9836651  21.1146863  62.8793571  58.6383736  21.4902109
  64.3777260  58.6744194  21.7034474  60.8429562  61.2986696  15.1014601
  61.7048726  61.6241594  15.3610418  61.0279906  60.5118192  14.5887666
  52.8596977  69.3809036  27.3794789  52.1660449  68.9662989  26.8664744
  53.6069968  69.4229572  26.7828208  54.7733720  69.3127290  25.2560804
  54.7504408  69.4114977  24.3042687  55.0834356  70.1592440  25.5777970
  57.4321098  71.3703445  29.3707419  58.3864351  71.3387387  29.3037350
  57.2333621  70.9094068  30.1857645  58.0220480  69.9404561  31.9378216
  58.8413369  70.4348639  31.9613054  58.2957288  69.0236529  31.9095784
  67.7787076  62.3315313  21.3006172  66.8912931  62.6164964  21.0826367
  68.1941065  62.1709076  20.4533449  55.7871327  76.9123064  26.3877617
  55.6525795  76.1523465  25.8215615  55.3703389  77.6363964  25.9206405
  66.9230290  72.0959988  15.3954192  67.6266140  72.3009990  16.0111847
  66.1992938  72.6636749  15.6603275  67.7528100  67.8469849  21.5156462
  67.6963301  68.3038400  20.6764094  68.3056442  67.0860533  21.3379305
  71.5632906  63.6359581  22.3406581  71.3069840  63.2356216  23.1714789
  70.9385774  64.3503375  22.2156721  75.8745244  66.3755654  24.8477873
  75.3144802  66.4448843  25.6209435  75.2688747  66.1996639  24.1277369
  58.9440452  77.8092381  26.5996059  58.8272837  78.7537814  26.4974749
  58.1232899  77.5065943  26.9881858  68.8316987  72.5342517  17.4452652
  69.6662591  72.1023715  17.2630127  68.6701330  72.3624530  18.3729546
  68.4862879  69.0374630  18.8108991  68.4311683  68.8718902  17.8697435
  67.8608934  69.7450663  18.9671181  61.7959005  58.5382739  18.3894310
  61.7837674  59.4824579  18.5462580  62.6882427  58.3552884  18.0953771
  59.9694967  78.4620643  29.8151988  60.8722213  78.4944253  30.1318483
  59.7432337  77.5321094  29.8298323  61.7248569  77.2151629  26.4762066
  60.7744200  77.2153491  26.3626439  62.0281055  76.4684364  25.9598101
  77.4601262  83.0512168  27.5407829  78.0979672  82.9318915  26.8371169
  77.3422105  83.9993012  27.5995781  74.2690968  83.0039596  27.4769353
  73.9309480  82.8880661  26.5889888  75.1380737  82.6030761  27.4570359
  70.1277784  84.8575072  23.4666244  69.5642649  84.7665009  22.6982532
  70.0130179  84.0374977  23.9468737  67.6742216  86.3526264  26.3050465
  68.4663508  86.0117089  25.8896764  67.9138866  86.4621239  27.2252618
  69.6332970  85.6135177  19.1767844  70.4063846  85.0664164  19.0380719
  69.9858369  86.4779427  19.3882305  71.4718013  86.9411560  32.3834743
  71.1807878  87.8457190  32.2681409  72.1074997  86.9828087  33.0978812
  72.3974219  84.3188408  28.9736102  72.9937792  84.0944430  28.2593065
  72.4549191  83.5773154  29.5761550  71.9699248  81.7727843  16.8086293
  72.2224768  81.2509365  16.0469756  71.0323807  81.6093989  16.9112977
  77.0142531  80.7763622  24.6161037  77.8005620  80.3583045  24.2651454
  77.2781235  81.6809714  24.7842685  77.1852608  86.2136472  19.3149693
  76.5498441  86.2871099  20.0270598  76.8550014  86.8030071  18.6368773
  82.4150958  80.7138855  25.5194015  83.1476130  80.1438072  25.7531845
  81.6590313  80.3260455  25.9600521  71.6895537  83.6755949  19.0110668
  71.5731795  83.0000853  19.6791753  71.7997796  83.1888323  18.1942821
  74.0327077  83.1366096  22.7157358  73.6685285  82.6096717  23.4270279
  74.8894193  82.7464565  22.5423843  79.9376378  74.4260429  29.9788624
  79.6059703  75.2955840  29.7549839  79.3421991  74.1096713  30.6582654
  73.6732564  78.1655996  17.7118706  73.8406967  79.0336233  18.0789177
  73.4829733  78.3283278  16.7879995  76.4307898  86.6272975  29.3784537
  76.1308621  87.5298014  29.2700344  76.0858957  86.3605158  30.2305689
  69.8820379  83.0786772  25.4121241  68.9570876  82.9462986  25.6198933
  70.1304792  83.8580991  25.9091183  79.8305041  79.1455515  27.0581974
  78.9221919  79.0770924  26.7640735  79.7792637  79.6227460  27.8863799
  73.6521785  80.6213654  18.6965373  73.5321410  81.0670704  19.5350853
  72.9574374  80.9698971  18.1378911  67.2429190  82.7220045  26.2465030
  67.3721571  82.9754524  27.1604442  66.5626641  83.3147753  25.9269685
  71.4128677  93.3917295  22.3455504  71.3352707  94.3425120  22.4243985
  70.8090321  93.0463168  23.0030431  81.6966688  77.3471954  28.8359848
  81.0541068  77.6404487  28.1899642  81.1921616  77.2324874  29.6413044
  79.3506851  81.0935127  19.5245707  80.2624708  81.3262514  19.3493405
  78.8416499  81.6772171  18.9620786  77.6347619  85.5159755  33.1607000
  78.0430975  85.0742165  32.4161632  76.9124881  84.9412382  33.4141192
  77.9576434  86.0760945  26.9159288  77.3285296  86.2406659  26.2135356
  77.5702096  86.4902555  27.6870253  81.8365666  87.0115383  24.2703652
  81.1516704  87.3914284  23.7200686  81.9209515  87.6210710  25.0035600
  79.0916597  84.6575342  30.8698996  79.3033493  85.3007102  30.1933377
  79.0446346  83.8237659  30.4020926  76.6942826  77.2693163  27.7735568
  75.8327305  77.5674416  28.0652305  76.7205261  77.4863562  26.8416601
  73.5104396  85.8135353  24.1809374  73.9742741  86.0923056  23.3913996
  73.2461194  84.9118798  23.9982464  70.4028477  85.3606835  27.1189137
  70.9729834  85.7894103  26.4806621  70.9936589  85.0789420  27.8173323
  72.4473282  81.9358506  20.9898939  73.1497325  82.3879549  21.4572865
  72.1153910  81.2942325  21.6178832  66.1898616  80.1942058  26.2916072
  65.3997670  80.4499587  25.8156183  66.6809863  81.0090396  26.3968113
  80.2062425  87.5347298  29.0421353  81.0279869  87.1327485  28.7604035
  80.2024828  87.4315532  29.9937469  68.1413361  80.5586638  23.2499549
  67.3444524  80.6705332  23.7683045  67.9138953  80.8973290  22.3840440
  73.9719029  87.0831341  31.1982064  74.0363461  87.5451748  32.0340235
  73.2629953  86.4528706  31.3264373  64.4736319  80.4472549  28.7231063
  64.7244357  81.3319559  28.9888639  65.0095867  80.2677150  27.9506155
  88.2968418  83.8786046  25.3906325  87.5432127  83.3093444  25.2350329
  88.4315959  83.8448711  26.3376959  73.6867046  88.7499448  21.0661044
  73.5512721  89.5950984  21.4945892  74.2276859  88.9518726  20.3026978
  67.1396444  86.2674886  21.6388969  67.6520964  87.0618137  21.7894534
  67.7919157  85.5701177  21.5722570  68.9491328  89.3840643  23.7211722
  69.1257957  90.3058607  23.5332706  69.7448162  89.0699062  24.1506102
  75.3135523  89.3723015  35.1961386  74.8699377  88.5859393  34.8782291
  75.9752736  89.5602165  34.5305277  70.0722644  90.9018816  29.7222065
  70.6230069  90.7735880  28.9499058  69.2334120  91.2013705  29.3716957
  77.4116761  89.6525815  33.2242787  77.3935236  90.4734696  32.7323056
  78.3336681  89.5279890  33.4492928  73.8689815  87.1669944  34.0666296
  74.4018152  86.4058232  33.8365604  73.3403896  86.8743596  34.8090450
  77.0359510  72.2730010  29.5959937  76.6923779  73.1631652  29.5199048
  77.4038472  72.0831668  28.7329522  65.1045360  84.5963541  22.4148540
  65.9420582  85.0060549  22.1982247  65.2823628  83.6562983  22.3848733
  77.0009793  82.2638621  18.1032373  76.4856416  83.0343226  18.3420760
  76.7287101  81.5903757  18.7265434  74.5856904  77.1088322  23.1617611
  73.7298500  76.7195172  22.9823250  74.9983855  77.1880283  22.3017396
  76.1156050  74.6434665  27.5609171  75.6120846  74.6064801  26.7476976
  76.4086657  75.5527408  27.6205827  72.3598936  74.7273395  26.5675352
  73.2251933  74.5316204  26.2081242  72.4276445  74.4983747  27.4944709
  76.7896096  80.1365713  19.9292154  76.4846231  80.4511863  20.7802297
  77.7426538  80.2147133  19.9719487  75.2342528  86.2955937  21.5785108
  74.7063889  85.5608696  21.2658345  74.7330030  87.0730613  21.3325076
  80.2135374  84.4904957  26.6952154  79.5559048  85.1804219  26.7832283
  81.0175773  84.8801389  27.0386140  69.9661255  76.9575603  23.9391719
  70.5405007  76.7350785  23.2064912  70.5532238  77.0264298  24.6920320
  79.0240832  82.8449330  24.7456096  79.5372714  83.4779322  25.2477805
  79.6742056  82.2450525  24.3799456  70.2930842  78.9880064  17.9587604
  69.4568155  79.3254751  18.2796879  70.1535612  78.8529044  17.0214741
  72.2683923  73.8316852  22.6666789  71.6148335  73.5165869  22.0423403
  72.2264397  73.2092592  23.3926612  75.5021663  80.3198785  26.9914436
  74.5844225  80.5413732  26.8336124  75.9181807  80.3945096  26.1326144
  76.2856711  81.7190201  22.1217117  77.0328530  82.2311598  21.8124239
  76.5548301  81.3974254  22.9821510  74.5583361  84.2148742  19.1044071
  73.6494581  83.9307775  19.2016541  74.5878445  84.6347820  18.2447378
  79.7902629  87.8255331  22.8735238  79.3364956  86.9846241  22.9300429
  79.1596595  88.4616730  23.2110019  78.7335548  78.7547317  24.1035906
  77.9958305  78.2424704  24.4346148  78.9862322  78.3147699  23.2919183
  78.2335568  89.6631828  23.8085057  78.5258542  90.2236885  23.0897422
  78.7434188  89.9560389  24.5638216  78.8347176  71.5323569  24.6977675
  79.1406052  70.6720933  24.4103590  79.5599780  72.1241190  24.4976669
  65.1271532  81.9354256  23.0859273  64.9295931  81.3423617  22.3610340
  64.5718196  81.6306466  23.8035212  73.1068255  81.8277362  25.2053866
  73.1616865  80.8751199  25.1296343  72.2959457  81.9836802  25.6895165
  71.0460615  80.4454422  22.9644245  70.2328481  80.7448593  23.3709437
  71.5419609  80.0510111  23.6818727  73.1969193  90.4412179  24.8978510
  73.1545372  90.6673025  23.9687042  74.1131892  90.2075554  25.0464311
  82.3732564  84.0314683  22.5008468  82.2350462  84.2216279  21.5729657
  82.0168783  84.7934065  22.9576519  70.5374690  78.0172778  28.5805480
  71.1774069  77.8761537  27.8828443  69.7052221  77.7307291  28.2044082
  82.4001943  86.0991210  27.5119739  82.8338450  86.0066499  28.3602793
  83.1133524  86.0748710  26.8739755  71.3134994  87.3175208  24.6940472
  72.1075592  86.8225528  24.4923047  70.6026686  86.7893071  24.3308178
  76.1329838  89.6993304  29.0452840  76.1866861  90.2684240  29.8130556
  75.2644620  89.8695189  28.6806877  67.6217757  81.4618290  20.7700225
  66.6915345  81.4002745  20.9870187  67.7175229  80.9394243  19.9736866
  67.5403306  77.9873103  23.3578467  67.8010124  78.9018436  23.2487627
  68.3620479  77.5197545  23.5075080  69.0128232  79.4010860  30.5277291
  69.6851285  79.1928222  29.8789940  68.1858018  79.2032946  30.0882524
  83.2617493  86.1414910  30.0452625  83.4553383  87.0460721  30.2911900
  83.1618111  85.6822329  30.8791210  78.3232602  86.2921653  35.6193505
  78.1718108  86.0632205  34.7023589  78.3137281  87.2492254  35.6324850
  75.0917938  83.8653566  30.6039772  76.0209998  84.0164725  30.4308739
  74.6708968  83.9537587  29.7488418  73.8906270  87.8904230  28.3738310
  73.7517356  87.5223015  29.2464248  73.1020866  88.4051870  28.2022267
  75.4411485  87.2685833  25.7627147  75.1061318  87.2286603  26.6584797
  74.9415431  86.6030549  25.2897558  69.4155729  82.6753463  31.2879728
  69.2775527  81.9433702  31.8891268  70.3260652  82.5862363  31.0063916
  80.0324808  89.3240776  33.6969987  79.9737354  88.6399996  33.0300570
  80.4344327  90.0659766  33.2450613  69.0515507  96.1402689  26.4903706
  69.2912105  96.7721214  27.1682725  68.2084704  95.7890729  26.7769065
  70.1669223  78.8327291  15.1585511  69.2898689  78.7116092  14.7947758
  70.6426976  78.0413370  14.9064400  80.0342216  87.2880359  31.9283967
  79.1468994  86.9506281  32.0510366  80.6040767  86.5563391  32.1652732
  61.6871363  83.6204451  25.2527018  62.3742403  83.3066181  24.6648034
  61.5319491  84.5245816  24.9794270  66.4906085  78.5094648  29.6812042
  66.4064274  77.9020317  28.9462452  65.6688791  79.0003666  29.6821538
  73.5643369  91.9481812  28.8945210  73.4913540  92.7536783  29.4064515
  73.1220762  92.1473778  28.0693232  73.3533149  91.1853582  22.4048032
  72.5700670  91.7275262  22.4986256  74.0525894  91.7027561  22.8042273
  76.6629799  76.9948211  25.0482237  77.1598498  76.2418174  24.7283307
  75.8916780  77.0312528  24.4825446  84.5159556  82.6988577  26.6900529
  84.5049432  83.5813292  26.3194462  83.6476936  82.3460128  26.4955066
  76.0242053  91.8468646  31.0503369  76.7370025  92.4816111  30.9779270
  75.5332081  91.9432512  30.2343371  77.7459579  85.7519899  22.6220661
  76.8115858  85.8721361  22.4525365  77.9236248  84.8492365  22.3580670
  73.2464767  79.1365594  24.7753922  72.8762555  78.5836635  25.4634827
  73.7423860  78.5323728  24.2228922  81.1332131  81.5937218  23.1570695
  81.5992583  82.4265209  23.0830997  81.5839631  81.1282199  23.8615953
  71.0753966  89.5963089  31.8708940  71.7763426  90.2299572  32.0238334
  70.6049081  89.9377821  31.1104579  79.2008362  87.9381039  20.1556847
  79.4768206  87.8237634  21.0650721  78.3312861  87.5398524  20.1169020
  79.1048794  73.9617805  27.1961596  78.1911873  74.1922032  27.3643803
  79.5341895  74.0456249  28.0475628  78.8755252  82.1507697  29.6961490
  78.2226702  82.3983604  29.0413943  79.2535632  81.3371835  29.3623967
  75.8362426  92.1867390  23.7989660  76.0184820  91.3689046  24.2617413
  76.6595412  92.4035082  23.3614550  66.6721684  89.1299444  28.8040042
  67.2575121  88.3843132  28.9367947  66.4746523  89.4403401  29.6876706
  69.5260339  92.1650692  23.8202485  68.8570715  92.6496819  23.3366525
  69.3873209  92.4119912  24.7345863  61.2639339  81.7005045  27.5244486
  61.3023438  81.1668635  28.3181604  60.7579632  81.1740250  26.9055463
  73.6665608  94.1994435  30.4185143  74.2183916  94.3626057  31.1834228
  74.0071801  94.7898873  29.7465168  68.6430101  76.5469585  31.0207028
  68.7071428  77.4084416  30.6084426  68.5797221  75.9343587  30.2879386
  68.1182374  78.6192718  34.6680062  68.7454412  78.2369795  35.2817586
  67.2610293  78.4006920  35.0335755  78.5176482  89.0255693  36.2733798
  79.0616386  89.6385651  35.7788752  77.9363327  89.5835271  36.7900811
  64.8947916  80.4269147  20.5998417  65.1901357  79.5179825  20.5465471
  63.9935952  80.4056886  20.2779419  76.8033995  92.1476411  27.4048825
  76.6785135  91.3466151  26.8959771  77.4613086  92.6422604  26.9162795
  68.4242163  78.5025143  26.5825966  67.7028749  79.1161111  26.4433439
  69.2135419  79.0382908  26.5042611  78.8668904  89.9485431  29.0328375
  77.9199239  89.8290782  28.9606702  79.2151677  89.0607929  29.1154637
  66.6235758  78.1083244  20.7237742  66.2948464  77.2280623  20.5412848
  66.9775129  78.0530913  21.6114131  75.8715337  89.7438147  25.2332728
  75.7240299  88.8154855  25.4140298  76.6968830  89.7658238  24.7489803
  69.7377581  78.3956214  21.0913220  70.0773654  78.9242135  20.3691828
  70.1849702  78.7336620  21.8671786  79.4749459  90.5666706  26.3197600
  80.3996006  90.3609567  26.1822051  79.3064762  90.3183107  27.2286942
  72.4321022  76.7793265  30.5416288  72.0917842  75.9801078  30.9436968
  71.7260028  77.0794976  29.9693121  73.0837494  73.8642577  28.9943611
  73.9063563  73.3903056  28.8722501  73.3275557  74.6433061  29.4942297
  71.7245728  76.8930836  19.2906512  72.4454091  77.2712089  18.7870229
  71.1011032  77.6119713  19.3941490  75.8676851  77.5975985  20.2264845
  76.0840466  78.4800623  19.9253673  75.3870918  77.2062198  19.4970487
  70.6076073  80.5561698  26.8035589  70.4620653  80.8702001  27.6959871
  70.1301276  81.1746598  26.2506488  72.4672455  77.5464246  26.8516479
  72.4534024  76.6505339  26.5148777  73.1844884  77.5534910  27.4854765
  74.3198586  77.9801586  28.8969606  74.0616364  78.9018657  28.8953937
  73.7883627  77.5832021  29.5870071  65.0821735  83.0967042  29.7423251
  64.5375203  83.8726850  29.8743525  65.9601085  83.4437847  29.5842372
  71.8709351  76.4278626  22.1204049  71.9925263  75.4995272  22.3194937
  71.5811394  76.4417312  21.2082365  74.7400542  74.1133537  25.2570769
  74.7622239  74.1772870  24.3022749  75.1568601  73.2738045  25.4511275
  85.1184166  83.8488796  23.2949992  85.5615312  83.0996121  22.8969115
  84.2410676  83.8398933  22.9123724  65.8687757  82.2236939  32.6353407
  65.1269493  82.3719574  33.2218038  65.5480501  82.4845204  31.7720157
  73.8131419  91.7652917  32.4333797  74.1218546  91.5202064  33.3056497
  74.6106901  91.9699555  31.9452668  73.8352031  93.9190826  24.6639174
  73.3957022  93.4267205  25.3572031  74.5860148  93.3763794  24.4231249
  66.3144370  90.1102367  24.6663802  67.1402390  89.8106139  24.2862446
  65.9638422  89.3409990  25.1153591  71.2825903  89.4628836  26.7361476
  70.6605913  88.7999541  26.4363704  71.9530770  89.4889967  26.0535123
  64.5152975  88.0288694  25.6252736  63.6784884  87.6010868  25.4436737
  64.4876621  88.2221137  26.5623527  81.8405277  88.4851747  35.6095119
  81.0500820  88.4675886  35.0699618  81.6038631  89.0240041  36.3644155
  81.9603152  85.3344213  32.9227847  82.0101157  85.1694221  33.8643370
  81.8517075  84.4671472  32.5325728  70.8439410  88.0132759  20.2119936
  70.9927531  88.6968223  19.5586609  71.6505854  87.9937849  20.7269392
  79.2506914  81.3175141  34.2387154  80.1516777  81.1781606  33.9471152
  79.3254889  81.4829596  35.1785331  83.4621348  87.7541155  33.1669869
  83.1706157  88.1171135  34.0033330  82.8493480  87.0408163  32.9883201
  84.6617031  85.3194035  25.6872439  85.4963922  85.7583839  25.8509999
  84.7976160  84.8432688  24.8680685  81.7108537  82.8773769  31.6349927
  82.1862658  83.0701416  30.8268778  80.7874102  82.9332955  31.3893311
  68.5992043  84.0397937  21.2181005  68.3538085  83.1360267  21.4161215
  68.7687958  84.0415087  20.2760483  67.8687691  79.7726294  18.7167167
  67.1756936  79.8470649  18.0607203  67.6239443  79.0086638  19.2388684
  76.5401347  71.3321895  26.1206657  76.8203101  70.6645085  26.7467084
  77.3251954  71.5250991  25.6081321  80.4110206  79.7539529  29.8678232
  81.3627629  79.8537627  29.8890457  80.2413656  78.9617798  30.3776317
  82.8898283  82.9745649  28.9820532  82.8574604  82.0361650  29.1680216
  83.4998907  83.0529686  28.2486357  74.7281614  81.8441702  15.0247736
  75.6740719  81.7147910  15.0936154  74.3495859  81.1056364  15.5017164
  83.0392772  79.7656693  29.0278815  82.5231821  78.9815149  28.8408744
  83.9232721  79.4375409  29.1925335  80.7003499  73.5097708  24.9874628
  80.5028320  73.2012796  25.8717960  81.3103204  74.2359347  25.1172558
  88.7074833  84.0361656  28.1226569  89.4378222  83.7746944  28.6834272
  88.0981779  83.2990378  28.1628637  86.7890130  82.1769519  28.7201020
  86.0623294  82.0425484  28.1117512  86.3737417  82.4846347  29.5257738
  72.9124532  79.7691679  14.9602621  72.0055987  79.4724791  15.0365335
  73.1900513  79.4721497  14.0936908  63.8302472  81.0898042  25.4101668
  63.5105256  80.2363350  25.1176042  63.2835900  81.3046620  26.1659635
  67.6082379  83.8060483  29.1271174  67.8268389  84.7377591  29.1459208
  68.0208153  83.4468457  29.9125978  74.5286597  74.3128568  21.1146863
  73.7187326  73.9675653  21.4902109  75.2171014  74.0036112  21.7034474
  76.4577146  73.3906615  22.7371159  77.0108184  73.8102068  23.3961182
  76.6947232  72.4642363  22.7794115  71.6823316  76.6278614  15.1014601
  72.5442480  76.9533512  15.3610418  71.8673660  75.8410110  14.5887666
  63.6990732  84.7100953  27.3794789  63.0054203  84.2954906  26.8664744
  64.4463723  84.7521490  26.7828208  79.8355953  75.5007140  22.2449824
  79.2554622  76.1591944  21.8627876  79.5691885  74.6784485  21.8337241
  78.2859519  74.9012198  24.4471144  78.7859297  75.0128732  23.6385463
  78.9295127  74.5973251  25.0871952  65.6127474  84.6419207  25.2560804
  65.5898163  84.7406894  24.3042687  65.9228111  85.4884358  25.5777970
  68.2714852  86.6995362  29.3707419  69.2258106  86.6679305  29.3037350
  68.0727376  86.2385986  30.1857645  68.8614234  85.2696478  31.9378216
  69.6807123  85.7640557  31.9613054  69.1351042  84.3528446  31.9095784
  78.6180831  77.6607231  21.3006172  77.7306686  77.9456881  21.0826367
  79.0334820  77.5000994  20.4533449  81.9695367  77.6853752  25.0160511
  82.7455757  78.1750204  25.2885128  81.2443501  78.1111806  25.4732381
  84.4067925  78.3981371  26.0734452  85.0012416  78.1577107  25.3627760
  84.4794509  77.6788501  26.7007988  66.6265081  92.2414982  26.3877617
  66.4919549  91.4815383  25.8215615  66.2097143  92.9655882  25.9206405
  78.5921854  83.1761767  21.5156462  78.5357056  83.6330318  20.6764094
  79.1450197  82.4152451  21.3379305  82.4026660  78.9651498  22.3406581
  82.1463595  78.5648134  23.1714789  81.7779528  79.6795292  22.2156721
  86.7138998  81.7047572  24.8477873  86.1538556  81.7740761  25.6209435
  86.1082502  81.5288556  24.1277369  69.7834207  93.1384299  26.5996059
  69.6666591  94.0829731  26.4974749  68.9626653  92.8357860  26.9881858
  64.1149149  79.6034612  32.6370413  64.7608012  79.0933566  33.1257639
  63.9066300  80.3403294  33.2113839  72.6352759  73.8674657  18.3894310
  72.6231429  74.8116497  18.5462580  73.5276181  73.6844802  18.0953771
  70.8088721  93.7912561  29.8151988  71.7115968  93.8236171  30.1318483
  70.5826091  92.8613012  29.8298323  72.5642323  92.5443547  26.4762066
  71.6137954  92.5445409  26.3626439  72.8674809  91.7976282  25.9598101
  76.4504879  70.4617433  22.6440246  75.6837274  69.9075920  22.7896929
  76.8615584  70.5339302  23.5054398  85.5904506  99.4866365  33.4355559
  85.5793147  99.0919164  32.5636063  85.7525145  98.7532438  34.0289330
  82.3111767 102.2703477  32.3834743  82.0201633 103.1749108  32.2681409
  82.9468751 102.3120005  33.0978812  90.7770133  89.7552347  29.9788624
  90.4453457  90.6247758  29.7549839  90.1815746  89.4388631  30.6582654
  78.0822945  98.0511963  26.2465030  78.2115326  98.3046442  27.1604442
  77.4020396  98.6439671  25.9269685  84.7439662  95.8937078  35.0016871
  83.9672996  96.4530999  34.9919736  85.3830225  96.3793861  35.5231741
  92.5360442  92.6763871  28.8359848  91.8934823  92.9696404  28.1899642
  92.0315371  92.5616792  29.6413044  82.9986034  98.7022532  34.5634838
  83.7400718  99.2407576  34.2869662  82.2923019  99.3288821  34.7206390
  88.4741374 100.8451672  33.1607000  88.8824730 100.4034083  32.4161632
  87.7518635 100.2704300  33.4141192  84.8272444  95.7824279  30.5340557
  85.6733639  96.2063693  30.6775206  84.7671081  95.1257903  31.2279120
  87.9771889  93.4428647  32.1921730  87.7332821  94.1970708  31.6556006
  88.2531819  93.8213995  33.0268977  87.5336581  92.5985080  27.7735568
  86.6721060  92.8966334  28.0652305  87.5599015  92.8155479  26.8416601
  81.7347398  95.8562180  35.3650148  81.1046058  96.5378461  35.5985545
  81.6283486  95.7445262  34.4203286  77.0292370  95.5233976  26.2916072
  76.2391424  95.7791505  25.8156183  77.5203618  96.3382314  26.3968113
  84.8112783 102.4123259  31.1982064  84.8757216 102.8743666  32.0340235
  84.1023707 101.7820623  31.3264373  75.3130073  95.7764466  28.7231063
  75.5638112  96.6611476  28.9888639  75.8489622  95.5969068  27.9506155
  81.0128140  90.1582946  37.7275399  80.6195086  89.6049144  38.4023043
  81.8294281  90.4693524  38.1181917  83.9296101  91.5740825  35.3195656
  84.6705815  92.1747978  35.2400118  84.1614024  90.8318463  34.7613698
  79.0737439  96.7597192  33.5973885  78.9590955  95.8582449  33.8980984
  78.2181957  97.0060889  33.2458702  84.7083569 102.4961862  34.0666296
  85.2411906 101.7350150  33.8365604  84.1797651 102.2035514  34.8090450
  87.8753264  87.6021928  29.5959937  87.5317534  88.4923570  29.5199048
  88.2432227  87.4123586  28.7329522  86.9549805  89.9726583  27.5609171
  86.4514600  89.9356718  26.7476976  87.2480412  90.8819326  27.6205827
  83.1992691  90.0565313  26.5675352  84.0645687  89.8608121  26.2081242
  83.2670200  89.8275665  27.4944709  83.1077677  89.1608770  22.6666789
  82.4542090  88.8457787  22.0423403  83.0658152  88.5384510  23.3926612
  89.6740930  86.8615487  24.6977675  89.9799807  86.0012850  24.4103590
  90.3993535  87.4533107  24.4976669  87.4828581  96.2388164  31.7959139
  87.8377969  96.4659637  32.6553605  88.1300713  96.5706541  31.1736394
  81.3768444  93.3464695  28.5805480  82.0167824  93.2053455  27.8828443
  80.5445975  93.0599209  28.2044082  79.8521986  94.7302778  30.5277291
  80.5245040  94.5220140  29.8789940  79.0251773  94.5324864  30.0882524
  85.7547558  91.3564718  32.5442952  85.1075473  92.0554668  32.4507429
  86.5248574  91.7900862  32.9119200  85.9311693  99.1945483  30.6039772
  86.8603753  99.3456643  30.4308739  85.5102723  99.2829504  29.7488418
  80.2549483  98.0045381  31.2879728  80.1169281  97.2725619  31.8891268
  81.1654407  97.9154281  31.0063916  82.8831784  97.7165340  30.7763408
  83.5931403  97.0758532  30.7350027  82.8401092  97.9678235  31.6989589
  81.5960718  94.7030558  32.5959048  81.0598075  94.2521296  33.2480644
  81.0077427  94.8376467  31.8529512  72.5265117  98.9496369  25.2527018
  73.2136157  98.6358099  24.6648034  72.3713246  99.8537734  24.9794270
  77.3299839  93.8386565  29.6812042  77.2458028  93.2312235  28.9462452
  76.5082546  94.3295584  29.6821538  89.9442548  89.2909722  27.1961596
  89.0305628  89.5213949  27.3643803  90.3735649  89.3748167  28.0475628
  85.7636580  98.2219425  36.1827527  85.0877217  98.1213555  36.8529902
  86.5864213  98.0658639  36.6463524  72.1033093  97.0296962  27.5244486
  72.1417193  96.4960553  28.3181604  71.5973386  96.5032168  26.9055463
  79.4823856  91.8761503  31.0207028  79.5465182  92.7376334  30.6084426
  79.4190976  91.2635504  30.2879386  78.9576128  93.9484635  34.6680062
  79.5848167  93.5661713  35.2817586  78.1004047  93.7298837  35.0335755
  79.2635918  93.8317061  26.5825966  78.5422504  94.4453029  26.4433439
  80.0529174  94.3674826  26.5042611  82.0662231  91.1671487  32.8566617
  82.5896633  91.4133784  33.6192927  81.8474565  91.9991522  32.4369755
  83.2714776  92.1085183  30.5416288  82.9311597  91.3092996  30.9436968
  82.5653783  92.4086893  29.9693121  83.9231248  89.1934495  28.9943611
  84.7457318  88.7194973  28.8722501  84.1669312  89.9724979  29.4942297
  81.4469827  95.8853616  26.8035589  81.3014408  96.1993919  27.6959871
  80.9695031  96.5038516  26.2506488  83.3066210  92.8756164  26.8516479
  83.2927779  91.9797257  26.5148777  84.0238638  92.8826827  27.4854765
  85.1592341  93.3093504  28.8969606  84.9010118  94.2310574  28.8953937
  84.6277381  92.9123938  29.5870071  75.9215489  98.4258960  29.7423251
  75.3768957  99.2018768  29.8743525  76.7994839  98.7729765  29.5842372
  85.5794296  89.4425454  25.2570769  85.6015993  89.5064787  24.3022749
  85.9962355  88.6029963  25.4511275  76.7081511  97.5528856  32.6353407
  75.9663247  97.7011492  33.2218038  76.3874255  97.8137122  31.7720157
  82.1944185  93.2702541  36.3293982  82.2432341  94.1464664  35.9471751
  82.7366700  92.7279934  35.7565625  90.0900669  96.6467059  34.2387154
  90.9910531  96.5073524  33.9471152  90.1648643  96.8121514  35.1785331
  84.4243474  94.0233914  33.0840340  83.5546783  94.3167480  32.8122929
  84.6602954  94.6074359  33.8047604  87.1282508  90.2413531  30.6005761
  87.6464452  90.9774558  30.2752249  86.7737640  90.5477524  31.4352520
  87.3795102  86.6613813  26.1206657  87.6596856  85.9937002  26.7467084
  88.1645709  86.8542909  25.6081321  91.2503960  95.0831447  29.8678232
  92.2021383  95.1829545  29.8890457  91.0807411  94.2909716  30.3776317
  89.2718340  92.1687030  30.0537633  88.6768272  92.4492043  29.3584122
  88.9868036  92.6580931  30.8254374  85.4514061 101.2251366  36.4848393
  86.3717071 101.4029965  36.6788440  85.4163644 100.2807411  36.3328092
  74.6696226  96.4189960  25.4101668  74.3499011  95.5655268  25.1176042
  74.1229655  96.6338538  26.1659635  78.4476134  99.1352401  29.1271174
  78.6662144 100.0669508  29.1459208  78.8601908  98.7760375  29.9125978
  83.3203999  94.7085606  38.5173923  83.2200726  95.6579963  38.4486014
  83.1025541  94.3803845  37.6449993  74.5384486 100.0392871  27.3794789
  73.8447958  99.6246824  26.8664744  75.2857477 100.0813408  26.7828208
  83.1835269  98.1382745  37.3338985  82.7002351  98.9383105  37.5402874
  83.2696208  98.1490690  36.3806429  79.1108607 102.0287280  29.3707419
  80.0651860 101.9971222  29.3037350  78.9121130 101.5677904  30.1857645
  79.7007989 100.5988396  31.9378216  80.5200878 101.0932475  31.9613054
  79.9744797  99.6820364  31.9095784  74.9542903  94.9326530  32.6370413
  75.6001767  94.4225484  33.1257639  74.7460054  95.6695211  33.2113839
  87.2898633  85.7909351  22.6440246  86.5231029  85.2367838  22.7896929
  87.7009338  85.8631220  23.5054398  79.2940394  92.0794147  36.7345428
  80.1571856  91.7230952  36.9448752  78.7205805  91.7408042  37.4220832
  42.2329489  15.1760817  20.1600865  42.2218130  14.7813616  19.2881369
  42.3950129  14.4426890  20.7534637  38.9536750  17.9597929  19.1080049
  38.6626616  18.8643560  18.9926716  39.5893735  18.0014457  19.8224119
  43.9126635  17.6459345  16.1029843  43.6127358  18.5484383  15.9945650
  43.5677695  17.3791528  16.9550996  41.3864645  11.5831530  21.7262178
  40.6097979  12.1425451  21.7165042  42.0255208  12.0688313  22.2477048
  39.6411017  14.3916984  21.2880145  40.3825702  14.9302028  21.0114968
  38.9348003  15.0183272  21.4451697  45.1166357  16.5346124  19.8852306
  45.5249713  16.0928535  19.1406939  44.3943618  15.9598752  20.1386499
  41.4697427  11.4718731  17.2585863  42.3158622  11.8958145  17.4020512
  41.4096065  10.8152355  17.9524426  45.4395172  17.0947315  13.6404595
  44.8104034  17.2593029  12.9380663  45.0520834  17.5088924  14.4115559
  49.3184403  18.0301753  10.9948959  48.6335442  18.4100654  10.4445992
  49.4028253  18.6397079  11.7280907  44.6196872   9.1323099  18.9167037
  44.3757804   9.8865160  18.3801313  44.8956803   9.5108447  19.7514284
  46.5735335  15.6761712  17.5944302  46.7852230  16.3193472  16.9178683
  46.5265083  14.8424028  17.1266232  38.3772381  11.5456632  22.0895455
  37.7471042  12.2272913  22.3230852  38.2708469  11.4339714  21.1448593
  47.6881163  18.5533667  15.7666660  48.5098607  18.1513854  15.4849341
  47.6843566  18.4501901  16.7182776  41.4537766  18.1017710  17.9227370
  41.5182199  18.5638118  18.7585542  40.7448690  17.4715075  18.0509680
  55.7787156  14.8972416  12.1151631  55.0250864  14.3279814  11.9595636
  55.9134697  14.8635080  13.0622266  37.6553124   5.8477398  24.4520706
  37.2620069   5.2943596  25.1268350  38.4719264   6.1587976  24.8427223
  40.5721085   7.2635277  22.0440962  41.3130798   7.8642430  21.9645425
  40.8039008   6.5212915  21.4859005  35.7162423  12.4491644  20.3219192
  35.6015938  11.5476901  20.6226291  34.8606940  12.6955341  19.9704009
  42.7954260  20.3909384  21.9206693  42.3518115  19.6045763  21.6027597
  43.4571474  20.5788535  21.2550583  37.5541382  21.9205186  16.4467371
  38.1048807  21.7922249  15.6744365  36.7152858  22.2200075  16.0962264
  44.8935499  20.6712184  19.9488094  44.8753974  21.4921065  19.4568363
  45.8155419  20.5466260  20.1738235  41.3508553  18.1856314  20.7911602
  41.8836890  17.4244602  20.5610910  40.8222634  17.8929966  21.5335757
  47.6954111  15.5091327  13.4197461  47.0377786  16.1990588  13.5077589
  48.4994511  15.8987759  13.7631447  45.7154306  20.6818198  10.5330363
  46.0077280  21.2423255   9.8142729  46.2252926  20.9746759  11.2883522
  44.1253565  11.9282616  18.5204446  44.4802952  12.1554089  19.3798911
  44.7725696  12.2600993  17.8981701  49.8820681  17.1177579  14.2365046
  50.3157188  17.0252868  15.0848100  50.5952262  17.0935080  13.5985062
  43.6148576  20.7179673  15.7698147  43.6685598  21.2870610  16.5375863
  42.7463357  20.8881558  15.4052184  50.7436231  17.1601280  16.7697931
  50.9372121  18.0647090  17.0157206  50.6436849  16.7008699  17.6036517
  45.8051339  17.3108023  22.3438812  45.6536846  17.0818574  21.4268896
  45.7956019  18.2678624  22.3570157  42.5736676  14.8839935  17.3285079
  43.5028736  15.0351095  17.1554046  42.1527706  14.9723956  16.4733725
  41.3725008  18.9090600  15.0983616  41.2336093  18.5409384  15.9709554
  40.5839604  19.4238239  14.9267574  36.8974467  13.6939832  18.0125035
  36.7594265  12.9620071  18.6136574  37.8079390  13.6048733  17.7309223
  39.5256767  13.4059792  17.5008715  40.2356386  12.7652984  17.4595333
  39.4826076  13.6572687  18.4234896  47.5143546  20.3427145  20.4215294
  47.4556092  19.6586365  19.7545877  47.9163064  21.0846135  19.9695920
  36.5334245  27.1589059  13.2149013  36.7730843  27.7907583  13.8928031
  35.6903441  26.8077099  13.5014372  47.5160953  18.3066729  18.6529274
  46.6287732  17.9692651  18.7755673  48.0859504  17.5749760  18.8898039
  41.0462107  22.9668181  15.6190517  40.9732278  23.7723153  16.1309821
  40.6039500  23.1660147  14.7938538  51.9978294  13.7174946  13.4145835
  51.9868170  14.5999662  13.0439768  51.1295673  13.3646497  13.2200372
  43.5060790  22.8655015  17.7748675  44.2188762  23.5002480  17.7024577
  43.0150819  22.9618881  16.9588677  38.5572704  20.6149459  18.5954246
  39.2582163  21.2485942  18.7483641  38.0867819  20.9564190  17.8349886
  46.3573990  13.1694066  16.4206797  45.7045440  13.4169974  15.7659249
  46.7354370  12.3558205  16.0869274  43.3181164  23.2053760  10.5234967
  43.5003558  22.3875415  10.9862719  44.1414150  23.4221452  10.0859857
  42.4061563  13.9113877  22.9072834  41.7302200  13.8108007  23.5775209
  43.2289197  13.7553091  23.3708831  34.1540422  20.1485814  15.5285349
  34.7393859  19.4029502  15.6613253  33.9565260  20.4589771  16.4122013
  41.1484346  25.2180805  17.1430450  41.7002654  25.3812426  17.9079535
  41.4890539  25.8085243  16.4710475  35.6001111   9.6379087  21.3925369
  36.2273150   9.2556164  22.0062893  34.7429030   9.4193289  21.7581061
  45.9995220  20.0442062  22.9979104  46.5435124  20.6572021  22.5034059
  45.4182065  20.6021641  23.5146117  44.2852733  23.1662780  14.1294132
  44.1603872  22.3652520  13.6205077  44.9431824  23.6608974  13.6408102
  46.3487641  20.9671800  15.7573682  45.4017977  20.8477152  15.6852009
  46.6970414  20.0794298  15.8399943  43.3534075  20.7624517  11.9578034
  43.2059037  19.8341224  12.1385604  44.1787568  20.7844607  11.4735109
  46.9568196  21.5853075  13.0442907  47.8814744  21.3795937  12.9067358
  46.7883500  21.3369477  13.9532248  41.2950157  22.7839286  19.1579104
  41.6037283  22.5388433  20.0301804  42.0925639  22.9885925  18.6697974
  41.3170769  24.9377196  11.3884481  40.8775759  24.4453575  12.0817337
  42.0678886  24.3950164  11.1476556  38.8369169   8.9596993  23.0539288
  38.8857324   9.8359116  22.6717058  39.3791683   8.4174386  22.4810932
  49.3224014  19.5038116  22.3340425  48.5319558  19.4862255  21.7944925
  49.0857369  20.0426410  23.0889462  49.4421889  16.3530583  19.6473154
  49.4919894  16.1880590  20.5888677  49.3335813  15.4857842  19.2571035
  46.7325652  12.3361511  20.9632461  47.6335515  12.1967976  20.6716458
  46.8073626  12.5015966  21.9030638  41.0668457   9.7128366  19.8085647
  40.1971767  10.0061932  19.5368236  41.3027938  10.2968811  20.5292911
  50.9440086  18.7727524  19.8915176  50.6524895  19.1357505  20.7278636
  50.3312218  18.0594533  19.7128508  52.1435769  16.3380404  12.4117746
  52.9782660  16.7770208  12.5755306  52.2794897  15.8619057  11.5925992
  49.1927275  13.8960139  18.3595233  49.6681396  14.0887785  17.5514085
  48.2692840  13.9519325  18.1138617  47.8928944  10.7725899  16.5923539
  48.8446366  10.8723997  16.6135763  47.7232394   9.9804168  17.1021623
  50.3717021  13.9932019  15.7065839  50.3393341  13.0548019  15.8925523
  50.9817645  14.0716055  14.9731664  50.5211510  10.7843062  15.7524122
  50.0050558  10.0001519  15.5654051  51.4051458  10.4561779  15.9170641
  56.1893571  15.0548026  14.8471876  56.9196960  14.7933314  15.4079579
  55.5800517  14.3176747  14.8873944  54.2708868  13.1955888  15.4446327
  53.5442032  13.0611853  14.8362818  53.8556155  13.5032717  16.2503045
  42.0939045  16.9145818  23.2093700  43.0142054  17.0924417  23.4033746
  42.0588628  15.9701863  23.0573399  39.9628983  10.3980058  25.2419230
  39.8625709  11.3474415  25.1731321  39.7450525  10.0698297  24.3695300
  39.8260253  13.8277197  24.0584292  39.3427334  14.6277557  24.2648181
  39.9121192  13.8385142  23.1051736  35.7533590  17.7181732  16.0952725
  36.7076844  17.6865674  16.0282657  35.5546114  17.2572356  16.9102951
  36.3432972  16.2882848  18.6623523  37.1625861  16.7826926  18.6858360
  36.6169780  15.3714816  18.6341090  37.2652945  24.1570668  13.3241366
  37.1485329  25.1016101  13.2220056  36.4445391  23.8544230  13.7127165
  44.1221279  17.6901829  24.8607861  44.9912438  17.8642481  24.4994496
  43.6428030  18.5096246  24.7383590  38.2907459  24.8098930  16.5397294
  39.1934706  24.8422540  16.8563789  38.0644829  23.8799381  16.5543630
  40.0461061  23.5629917  13.2007373  39.0956692  23.5631778  13.0871745
  40.3493547  22.8162651  12.6843407  35.9365377   7.7688599  23.4590734
  36.7996839   7.4125404  23.6694059  35.3630788   7.4302494  24.1466139
  55.7813754  29.3990455  14.2653135  56.4192164  29.2797202  13.5616475
  55.6634597  30.3471299  14.3241087  52.5903461  29.3517883  14.2014660
  52.2521972  29.2358948  13.3135195  53.4593229  28.9509048  14.1815666
  48.4490276  31.2053360  10.1911551  47.8855141  31.1143297   9.4227839
  48.3342671  30.3853264  10.6714043  53.0723244  30.5052735  20.1600865
  53.0611884  30.1105533  19.2881369  53.2343883  29.7718808  20.7534637
  45.9954708  32.7004551  13.0295771  46.7876000  32.3595376  12.6142071
  46.2351358  32.8099526  13.9497925  54.0289835  34.8724327   5.5026016
  53.3777815  35.4578408   5.1160030  54.8234198  35.4030522   5.5621053
  47.9545462  31.9613464   5.9013150  48.7276338  31.4142452   5.7626026
  48.3070861  32.8257714   6.1127612  49.7930505  33.2889847  19.1080049
  49.5020371  34.1935478  18.9926716  50.4287489  33.3306374  19.8224119
  50.7186712  30.6666695  15.6981409  51.3150284  30.4422718  14.9838372
  50.7761683  29.9251441  16.3006857  55.3355023  27.1241909  11.3406343
  56.1218112  26.7061332  10.9896760  55.5993727  28.0288001  11.5087992
  55.5065100  32.5614759   6.0395000  54.8710933  32.6349386   6.7515905
  55.1762507  33.1508358   5.3614079  60.7363450  27.0617142  12.2439322
  61.4688622  26.4916359  12.4777151  59.9802806  26.6738743  12.6845827
  50.0108029  30.0234237   5.7355975  49.8944287  29.3479140   6.4037059
  50.1210289  29.5366610   4.9188128  52.3539570  29.4844384   9.4402664
  51.9897777  28.9575005  10.1515586  53.2106686  29.0942853   9.2669150
  58.2588870  20.7738716  16.7033930  57.9272195  21.6434127  16.4795145
  57.6634484  20.4575000  17.3827961  54.7520390  32.9751262  16.1029843
  54.4521113  33.8776301  15.9945650  54.4071449  32.7083445  16.9550996
  48.2032871  29.4265059  12.1366548  47.2783368  29.2941273  12.3444239
  48.4517285  30.2059278  12.6336490  58.1517534  25.4933802  13.7827280
  57.2434411  25.4249211  13.4886041  58.1005129  25.9705747  14.6109106
  51.9734278  26.9691941   5.4210680  51.8533903  27.4148992   6.2596160
  51.2786866  27.3177259   4.8624218  45.5641682  29.0698333  12.9710337
  45.6934064  29.3232812  13.8849748  44.8839134  29.6626041  12.6514992
  49.7341170  39.7395583   9.0700811  49.6565199  40.6903408   9.1489291
  49.1302813  39.3941455   9.7275737  52.2258399  26.9123448  21.7262178
  51.4491734  27.4717368  21.7165042  52.8648963  27.3980231  22.2477048
  60.0179180  23.6950241  15.5605154  59.3753560  23.9882774  14.9144949
  59.5134109  23.5803161  16.3658351  57.6719344  27.4413414   6.2491014
  58.5837200  27.6740801   6.0738711  57.1628991  28.0250458   5.6866092
  50.4804772  29.7208901  21.2880145  51.2219456  30.2593945  21.0114968
  49.7741757  30.3475190  21.4451697  55.9560111  31.8638042  19.8852306
  56.3643467  31.4220452  19.1406939  55.2337373  31.2890669  20.1386499
  52.3091181  26.8010649  17.2585863  53.1552377  27.2250062  17.4020512
  52.2489819  26.1444273  17.9524426  56.2788926  32.4239232  13.6404595
  55.6497788  32.5884947  12.9380663  55.8914588  32.8380842  14.4115559
  60.1578158  33.3593670  10.9948959  59.4729196  33.7392572  10.4445992
  60.2422007  33.9688997  11.7280907  55.4590627  24.4615017  18.9167037
  55.2151559  25.2157078  18.3801313  55.7350557  24.8400365  19.7514284
  57.4129090  31.0053629  17.5944302  57.6245985  31.6485389  16.9178683
  57.3658838  30.1715946  17.1266232  55.0155319  23.6171450  14.4980875
  54.1539798  23.9152704  14.7897612  55.0417753  23.8341849  13.5661907
  51.8316888  32.1613641  10.9054680  52.2955233  32.4401344  10.1159303
  51.5673686  31.2597085  10.7227771  48.7240969  31.7085122  13.8434443
  49.2942326  32.1372390  13.2051928  49.3149081  31.4267707  14.5418629
  50.7685774  28.2836793   7.7144245  51.4709817  28.7357837   8.1818172
  50.4366402  27.6420612   8.3424138  49.2166136  26.8748550  22.0895455
  48.5864796  27.5564830  22.3230852  49.1102223  26.7631631  21.1448593
  44.5111108  26.5420346  13.0161379  43.7210162  26.7977874  12.5401490
  45.0022355  27.3568683  13.1213419  58.5274917  33.8825585  15.7666660
  59.3492361  33.4805772  15.4849341  58.5237320  33.7793819  16.7182776
  46.4625853  26.9064925   9.9744856  45.6657017  27.0183619  10.4928351
  46.2351446  27.2451577   9.1085746  52.2931521  33.4309628  17.9227370
  52.3575953  33.8930035  18.7585542  51.5842445  32.8006993  18.0509680
  42.7948811  26.7950836  15.4476370  43.0456849  27.6797846  15.7133946
  43.3308359  26.6155438  14.6751462  66.6180911  30.2264333  12.1151631
  65.8644619  29.6571731  11.9595636  66.7528452  30.1926998  13.0622266
  52.0079539  35.0977736   7.7906351  51.8725213  35.9429271   8.2191198
  52.5489351  35.2997013   7.0272284  48.4946878  21.1769315  24.4520706
  48.1013824  20.6235514  25.1268350  49.3113019  21.4879894  24.8427223
  45.4608936  32.6153174   8.3634276  45.9733457  33.4096424   8.5139840
  46.1131649  31.9179464   8.2967877  47.2703821  35.7318930  10.4457029
  47.4470449  36.6536895  10.2578013  48.0660654  35.4177349  10.8751409
  51.4114839  22.5927195  22.0440962  52.1524553  23.1934348  21.9645425
  51.6432762  21.8504832  21.4859005  46.5556177  27.7783562  20.3219192
  46.4409692  26.8768819  20.6226291  45.7000695  28.0247259  19.9704009
  53.6348015  35.7201302  21.9206693  53.1911869  34.9337681  21.6027597
  54.2965229  35.9080453  21.2550583  48.3935136  37.2497104  16.4467371
  48.9442561  37.1214167  15.6744365  47.5546612  37.5491993  16.0962264
  55.7329253  36.0004102  19.9488094  55.7147728  36.8212983  19.4568363
  56.6549173  35.8758177  20.1738235  52.1902307  33.5148231  20.7911602
  52.7230644  32.7536520  20.5610910  51.6616388  33.2221883  21.5335757
  55.3572002  18.6208297  16.3205244  55.0136272  19.5109939  16.2444355
  55.7250965  18.4309955  15.4574829  43.4257853  30.9441828   9.1393846
  44.2633075  31.3538836   8.9227554  43.6036120  30.0041270   9.1094040
  55.3222285  28.6116909   4.8277679  54.8068908  29.3821513   5.0666067
  55.0499593  27.9382045   5.4510741  52.9069396  23.4566609   9.8862918
  52.0510992  23.0673460   9.7068556  53.3196348  23.5358570   9.0262703
  54.4368543  20.9912953  14.2854477  53.9333338  20.9543088  13.4722283
  54.7299149  21.9005695  14.3451134  50.6811428  21.0751682  13.2920659
  51.5464425  20.8794491  12.9326548  50.7488937  20.8462034  14.2190016
  60.2956559  31.3649263   6.7630853  59.5186002  31.0260423   6.3186015
  60.9748040  31.3701886   6.0885818  55.1108588  26.4844001   6.6537460
  54.8058724  26.7990150   7.5047604  56.0639030  26.5625421   6.6964793
  53.5555020  32.6434224   8.3030414  53.0276381  31.9086984   7.9903652
  53.0542523  33.4208900   8.0570383  58.5347866  30.8383244  13.4197461
  57.8771540  31.5282506  13.5077589  59.3388265  31.2279676  13.7631447
  48.2873748  23.3053890  10.6637026  48.8617499  23.0829072   9.9310219
  48.8744730  23.3742585  11.4165627  57.3453325  29.1927617  11.4701402
  57.8585206  29.8257609  11.9723112  57.9954549  28.5928813  11.1044762
  54.6075699  39.1711941   4.2262074  53.9337398  39.4743638   4.8347031
  54.9941521  39.9741022   3.8767531  53.8234156  26.6677073  13.7159743
  52.9056717  26.8892020  13.5581431  54.2394299  26.7423383  12.8571450
  54.6069203  28.0668488   8.8462423  55.3541022  28.5789886   8.5369545
  54.8760793  27.7452541   9.7066817  52.8795854  30.5627029   5.8289377
  51.9707073  30.2786062   5.9261847  52.9090937  30.9826108   4.9692684
  58.1115121  34.1733619   9.5980545  57.6577448  33.3324528   9.6545735
  57.4809088  34.8095017   9.9355325  57.0548041  25.1025605  10.8281212
  56.3170797  24.5902991  11.1591455  57.3074814  24.6625986  10.0164489
  56.5548060  36.0110115  10.5330363  56.8471035  36.5715172   9.8142729
  57.0646681  36.3038676  11.2883522  57.1559668  17.8801857  11.4222982
  57.4618545  17.0199220  11.1348897  57.8812273  18.4719477  11.2221976
  43.4484024  28.2832543   9.8104580  43.2508424  27.6901904   9.0855646
  42.8930688  27.9784753  10.5280518  51.4280748  28.1755650  11.9299173
  51.4829357  27.2229486  11.8541649  50.6171950  28.3315089  12.4140471
  52.5771941  32.1035773   3.1677456  52.1391371  31.3871632   2.7083093
  53.3182382  32.3311888   2.6062547  49.3673107  26.7932709   9.6889552
  48.5540973  27.0926880  10.0954744  49.8632102  26.3988398  10.4064034
  51.5181685  36.7890466  11.6223816  51.4757864  37.0151313  10.6932348
  52.4344384  36.5553841  11.7709617  54.9647319  27.2574534  18.5204446
  55.3196707  27.4846007  19.3798911  55.6119450  27.5892911  17.8981701
  60.6945056  30.3792970   9.2253775  60.5562955  30.5694566   8.2974964
  60.3381275  31.1412353   9.6821826  48.8587182  24.3651065  15.3050787
  49.4986562  24.2239824  14.6073750  48.0264713  24.0785578  14.9289389
  60.7214436  32.4469497  14.2365046  61.1550942  32.3544786  15.0848100
  61.4346016  32.4226997  13.5985062  49.6347486  33.6653495  11.4185779
  50.4288085  33.1703816  11.2168354  48.9239179  33.1371359  11.0553485
  54.4542331  36.0471591  15.7698147  54.5079353  36.6162527  16.5375863
  53.5857112  36.2173476  15.4052184  45.9430250  27.8096577   7.4945532
  45.0127838  27.7481033   7.7115494  46.0387722  27.2872530   6.6982173
  45.8615799  24.3351390  10.0823773  46.1222616  25.2496723   9.9732934
  46.6832971  23.8675833  10.2320386  47.3340724  25.7489147  17.2522598
  48.0063777  25.5406509  16.6035247  46.5070511  25.5511233  16.8127830
  61.5829985  32.4893197  16.7697931  61.7765875  33.3939008  17.0157206
  61.4830603  32.0300617  17.6036517  53.2366296  22.3751088  19.2688259
  52.5894211  23.0741038  19.1752735  54.0067311  22.8087232  19.6364507
  56.6445094  32.6399940  22.3438812  56.4930600  32.4110492  21.4268896
  56.6349773  33.5970542  22.3570157  53.4130430  30.2131853  17.3285079
  54.3422490  30.3643013  17.1554046  52.9921460  30.3015874  16.4733725
  52.2118762  34.2382517  15.0983616  52.0729848  33.8701302  15.9709554
  51.4233358  34.7530157  14.9267574  52.8066914  39.3391614   6.4409153
  52.9818670  38.8679657   7.2554775  52.1199702  39.9657380   6.6690413
  53.7623977  33.6164120  12.4872454  53.4273810  33.5764890  13.3830104
  53.2627923  32.9508836  12.0142864  47.7368221  29.0231750  18.0125035
  47.5988019  28.2911989  18.6136574  48.6473145  28.9340650  17.7309223
  56.6983169  30.9620154   2.7609514  56.0812340  30.2366983   2.6642566
  56.2299657  31.7229515   2.4176588  50.3650522  28.7351709  17.5008715
  51.0750140  28.0944902  17.4595333  50.3219830  28.9864604  18.4234896
  58.3537301  35.6719063  20.4215294  58.2949847  34.9878283  19.7545877
  58.7556819  36.4138053  19.9695920  49.0779456  25.7216927  19.3204354
  48.5416813  25.2707666  19.9725951  48.4896164  25.8562836  18.5774819
  47.3727999  42.4880977  13.2149013  47.6124598  43.1199501  13.8928031
  46.5297196  42.1369017  13.5014372  58.3554708  33.6358647  18.6529274
  57.4681487  33.2984568  18.7755673  58.9253259  32.9041678  18.8898039
  40.0083855  29.9682738  11.9772325  40.6954895  29.6544468  11.3893340
  39.8531984  30.8724103  11.7039576  44.8118577  24.8572935  16.4057349
  44.7276766  24.2498605  15.6707759  43.9901284  25.3481953  16.4066845
  51.8855861  38.2960099  15.6190517  51.8126033  39.1015071  16.1309821
  51.4433254  38.4952065  14.7938538  51.6745641  37.5331869   9.1293338
  50.8913163  38.0753549   9.2231563  52.3738386  38.0505849   9.5287580
  54.9842291  23.3426499  11.7727544  55.4810991  22.5896461  11.4528614
  54.2129273  23.3790815  11.2070753  62.8372048  29.0466864  13.4145835
  62.8261925  29.9291580  13.0439768  61.9689428  28.6938415  13.2200372
  54.3454545  38.1946933  17.7748675  55.0582517  38.8294398  17.7024577
  53.8544573  38.2910799  16.9588677  56.0672072  32.0998186   9.3465967
  55.1328350  32.2199648   9.1770671  56.2448740  31.1970653   9.0825977
  51.5677260  25.4843882  11.4999228  51.1975047  24.9314922  12.1880134
  52.0636352  24.8802015  10.9474228  59.4544623  27.9415505   9.8816001
  59.9205075  28.7743497   9.8076304  59.9052124  27.4760487  10.5861260
  49.3966458  35.9441377  18.5954246  50.0975918  36.5777860  18.7483641
  48.9261573  36.2856108  17.8349886  57.5220854  34.2859326   6.8802153
  57.7980698  34.1715921   7.7896027  56.6525353  33.8876811   6.8414326
  57.4261286  20.3096092  13.9206903  56.5124366  20.5400319  14.0889110
  57.8554387  20.3934536  14.7720935  57.1967744  28.4985984  16.4206797
  56.5439195  28.7461891  15.7659249  57.5748124  27.6850122  16.0869274
  54.1574918  38.5345677  10.5234967  54.3397313  37.7167333  10.9862719
  54.9807904  38.7513369  10.0859857  54.4917084  37.4613862   7.7850015
  55.0204850  36.9506317   7.1720178  54.7545303  37.1456393   8.6495548
  53.2455317  29.2405795  22.9072834  52.5695954  29.1399924  23.5775209
  54.0682951  29.0845009  23.3708831  44.9934176  35.4777732  15.5285349
  45.5787613  34.7321420  15.6613253  44.7959015  35.7881688  16.4122013
  47.8472832  38.5128979  10.5447791  47.1783207  38.9975107  10.0611831
  47.7085701  38.7598199  11.4591170  39.5851831  28.0483332  14.2489792
  39.6235931  27.5146923  15.0426910  39.0792124  27.5218537  13.6300769
  51.9878100  40.5472723  17.1430450  52.5396408  40.7104344  17.9079535
  52.3284294  41.1377160  16.4710475  46.9642593  22.8947872  17.7452334
  47.0283920  23.7562703  17.3329732  46.9009714  22.2821874  17.0124693
  46.4394866  24.9671005  21.3925369  47.0666905  24.5848082  22.0062893
  45.5822785  24.7485207  21.7581061  56.8388975  35.3733980  22.9979104
  57.3828878  35.9863938  22.5034059  56.2575819  35.9313558  23.5146117
  55.1246487  38.4954698  14.1294132  54.9997627  37.6944438  13.6205077
  55.7825579  38.9900891  13.6408102  46.7454656  24.8503431  13.3071272
  46.0241241  25.4639398  13.1678745  47.5347911  25.3861195  13.2287918
  57.1881396  36.2963718  15.7573682  56.2411731  36.1769069  15.6852009
  57.5364169  35.4086216  15.8399943  49.5480969  22.1857857  19.5811924
  50.0715371  22.4320154  20.3438233  49.3293302  23.0177892  19.1615061
  54.1927829  36.0916434  11.9578034  54.0452792  35.1633142  12.1385604
  55.0181323  36.1136525  11.4735109  48.0590073  24.7434501   7.8158526
  48.3986146  25.2720423   7.0937135  48.5062194  25.0814908   8.5917093
  57.7961951  36.9144993  13.0442907  58.7208498  36.7087854  12.9067358
  57.6277254  36.6661394  13.9532248  50.7533514  23.1271552  17.2661594
  50.4130335  22.3279365  17.6682274  50.0472521  23.4273263  16.6938428
  51.4049986  20.2120865  15.7188917  52.2276055  19.7381343  15.5967808
  51.6488050  20.9911348  16.2187604  54.1889343  23.9454272   6.9510151
  54.4052958  24.8278910   6.6498980  53.7083411  23.5540485   6.2215793
  48.9288565  26.9039985  13.5280896  48.7833146  27.2180288  14.4205178
  48.4513768  27.5224886  12.9751795  50.7884948  23.8942533  13.5761786
  50.7746516  22.9983627  13.2394084  51.5057376  23.9013197  14.2100072
  52.6411078  24.3279873  15.6214913  52.3828856  25.2496944  15.6199243
  52.1096119  23.9310308  16.3115377  57.5857267  37.4330661   8.4004998
  57.7594145  36.8677083   7.6478851  58.0786158  38.2331555   8.2184488
  43.4034227  29.4445330  16.4668557  42.8587695  30.2205138  16.5988832
  44.2813577  29.7916134  16.3087679  50.1921844  22.7756913   8.8449356
  50.3137755  21.8473560   9.0440243  49.9023886  22.7895599   7.9327671
  53.0613034  20.4611824  11.9816076  53.0834731  20.5251157  11.0268055
  53.4781093  19.6216333  12.1756582  63.4396658  30.1967083  10.0195298
  63.8827804  29.4474409   9.6214421  62.5623169  30.1877220   9.6369030
  58.5732440  36.7497425   5.5001897  59.2683344  37.3704118   5.7189211
  58.9155590  35.8992776   5.7754275  44.1900249  28.5715226  19.3598714
  43.4481985  28.7197861  19.9463345  43.8692993  28.8323491  18.4965464
  60.4723863  34.1997130   7.0289227  60.9975187  34.5384403   6.3038547
  60.3846215  33.2644146   6.8452362  52.1343912  38.1131204  19.1579104
  52.4431038  37.8680351  20.0301804  52.9319394  38.3177843  18.6697974
  52.1564524  40.2669114  11.3884481  51.7169514  39.7745492  12.0817337
  52.9072641  39.7242081  11.1476556  44.6356863  36.4580655  11.3909109
  45.4614882  36.1584426  11.0107752  44.2850915  35.6888277  11.8398897
  49.6038396  35.8107123  13.4606782  48.9818405  35.1477828  13.1609010
  50.2743263  35.8368255  12.7780430  42.8365468  34.3766981  12.3498042
  41.9997376  33.9489155  12.1682044  42.8089113  34.5699424  13.2868834
  49.6762923  24.2888911  23.0539288  49.7251079  25.1651034  22.6717058
  50.2185437  23.7466304  22.4810932  60.1617769  34.8330034  22.3340425
  59.3713313  34.8154173  21.7944925  59.9251123  35.3718328  23.0889462
  60.2815644  31.6822500  19.6473154  60.3313649  31.5172508  20.5888677
  60.1729567  30.8149759  19.2571035  49.1651903  34.3611046   6.9365243
  49.3140023  35.0446511   6.2831916  49.9718346  34.3416136   7.4514699
  57.5719406  27.6653428  20.9632461  58.4729269  27.5259893  20.6716458
  57.6467381  27.8307883  21.9030638  51.9062212  25.0420283  19.8085647
  51.0365521  25.3353849  19.5368236  52.1421692  25.6260728  20.5292911
  61.7833841  34.1019442  19.8915176  61.4918649  34.4649423  20.7278636
  61.1705972  33.3886450  19.7128508  62.9829523  31.6672322  12.4117746
  63.8176414  32.1062126  12.5755306  63.1188652  31.1910975  11.5925992
  60.0321029  29.2252057  18.3595233  60.5075151  29.4179703  17.5514085
  59.1086594  29.2811242  18.1138617  46.9204536  30.3876224   7.9426312
  46.6750578  29.4838554   8.1406522  47.0900450  30.3893374   7.0005790
  54.6101245  21.2599900  17.3251067  55.1283189  21.9960927  16.9997556
  54.2556378  21.5663893  18.1597827  54.8613840  17.6800183  12.8451964
  55.1415593  17.0123372  13.4712391  55.6464447  17.8729278  12.3326628
  52.6647308  36.8559177   4.4076990  52.0921275  37.4749364   3.9547462
  53.2380102  37.4058538   4.9416912  58.7322698  26.1017817  16.5923539
  59.6840121  26.2015914  16.6135763  58.5626148  25.3096085  17.1021623
  56.7537077  23.1873400  16.7782940  56.1587010  23.4678413  16.0829429
  56.4686774  23.6767301  17.5499681  55.8844568  37.1396327   5.5385573
  56.8175241  37.0741888   5.7418448  55.7967781  37.9752594   5.0800105
  58.5132585  36.4562197   2.4989520  58.4346216  36.1222061   3.3925278
  59.3342251  36.9483965   2.4980992  61.2110776  29.3223936  15.7065839
  61.1787096  28.3839937  15.8925523  61.8211399  29.4007973  14.9731664
  61.3605264  26.1134980  15.7524122  60.8444313  25.3293436  15.5654051
  62.2445213  25.7853696  15.9170641  59.0215991  19.8575995  11.7119935
  58.8240812  19.5491084  12.5963267  59.6315697  20.5837634  11.8417864
  67.0287326  30.3839943  14.8471876  67.7590714  30.1225231  15.4079579
  66.4194271  29.6468665  14.8873944  65.1102623  28.5247806  15.4446327
  64.3835786  28.3903771  14.8362818  64.6949910  28.8324634  16.2503045
  52.9332799  32.2437735  23.2093700  53.8535809  32.4216334  23.4033746
  52.8982382  31.2993781  23.0573399  42.1514964  27.4376329  12.1346974
  41.8317749  26.5841637  11.8421348  41.6048392  27.6524907  12.8904942
  45.9294872  30.1538770  15.8516481  46.1480881  31.0855878  15.8704515
  46.3420646  29.7946745  16.6371285  52.8499090  20.6606855   7.8392169
  52.0399818  20.3153940   8.2147415  53.5383506  20.3514399   8.4279781
  54.7789638  19.7384902   9.4616466  55.3320676  20.1580356  10.1206489
  55.0159724  18.8120650   9.5039422  50.8022737  25.7271976  25.2419230
  50.7019464  26.6766333  25.1731321  50.5844279  25.3990215  24.3695300
  42.0203224  31.0579241  14.1040096  41.3266696  30.6433193  13.5910050
  42.7676215  31.0999777  13.5073515  58.1568445  21.8485427   8.9695130
  57.5767114  22.5070231   8.5873183  57.8904378  21.0262772   8.5582548
  56.6072011  21.2490485  11.1716451  57.1071790  21.3607020  10.3630769
  57.2507619  20.9451538  11.8117259  50.6654007  29.1569115  24.0584292
  50.1821089  29.9569475  24.2648181  50.7514946  29.1677060  23.1051736
  43.9339967  30.9897494  11.9806111  43.9110655  31.0885182  11.0287994
  44.2440603  31.8362645  12.3023277  46.5927345  33.0473649  16.0952725
  47.5470598  33.0157592  16.0282657  46.3939868  32.5864273  16.9102951
  47.1826727  31.6174765  18.6623523  48.0019616  32.1118844  18.6858360
  47.4563534  30.7006734  18.6341090  56.9393323  24.0085518   8.0251478
  56.0519178  24.2935168   7.8071673  57.3547312  23.8479281   7.1778755
  60.2907859  24.0332039  11.7405818  61.0668249  24.5228491  12.0130435
  59.5655993  24.4590093  12.1977687  62.7280418  24.7459658  12.7979758
  63.3224908  24.5055394  12.0873067  62.8007001  24.0266789  13.4253295
  44.9477573  38.5893269  13.1122923  44.8132041  37.8293670  12.5460921
  44.5309636  39.3134169  12.6451712  56.0836536  33.7730192   2.1199498
  56.7872386  33.9780195   2.7357154  55.3599185  34.3406954   2.3848582
  56.9134347  29.5240054   8.2401769  56.8569548  29.9808605   7.4009401
  57.4662689  28.7630738   8.0624611  60.7239153  25.3129786   9.0651888
  60.4676087  24.9126421   9.8960096  60.0992021  26.0273580   8.9402027
  65.0351490  28.0525859  11.5723180  64.4751048  28.1219048  12.3454742
  64.4294994  27.8766843  10.8522676  48.1046699  39.4862586  13.3241366
  47.9879083  40.4308018  13.2220056  47.2839146  39.1836148  13.7127165
  57.9923234  34.2112722   4.1697959  58.8268838  33.7793920   3.9875433
  57.8307577  34.0394735   5.0974853  57.6469126  30.7144835   5.5354298
  57.5917930  30.5489106   4.5942742  57.0215181  31.4220868   5.6916488
  42.4361641  25.9512899  19.3615720  43.0820505  25.4411853  19.8502945
  42.2278792  26.6881581  19.9359145  54.9615033  33.0193747  24.8607861
  55.8306193  33.1934399  24.4994496  54.4821785  33.8388164  24.7383590
  49.1301213  40.1390848  16.5397294  50.0328460  40.1714458  16.8563789
  48.9038583  39.2091299  16.5543630  50.8854815  38.8921834  13.2007373
  49.9350446  38.8923696  13.0871745  51.1887302  38.1454569  12.6843407
  54.7717371  16.8095721   9.3685553  54.0049767  16.2554207   9.5142235
  55.1828076  16.8817589  10.2299705  46.7759132  23.0980516  23.4590734
  47.6390594  22.7417321  23.6694059  46.2024543  22.7594411  24.1466139
  66.6207509  44.7282373  14.2653135  67.2585919  44.6089120  13.5616475
  66.5028352  45.6763217  14.3241087  63.4297215  44.6809801  14.2014660
  63.0915727  44.5650866  13.3135195  64.2986983  44.2800966  14.1815666
  59.2884031  46.5345277  10.1911551  58.7248896  46.4435214   9.4227839
  59.1736426  45.7145182  10.6714043  63.9116998  45.8344653  20.1600865
  63.9005639  45.4397451  19.2881369  64.0737638  45.1010725  20.7534637
  56.8348463  48.0296469  13.0295771  57.6269755  47.6887294  12.6142071
  57.0745113  48.1391444  13.9497925  64.8683590  50.2016245   5.5026016
  64.2171569  50.7870325   5.1160030  65.6627952  50.7322440   5.5621053
  58.7939217  47.2905382   5.9013150  59.5670093  46.7434369   5.7626026
  59.1464616  48.1549631   6.1127612  60.6324259  48.6181764  19.1080049
  60.3414125  49.5227395  18.9926716  61.2681244  48.6598292  19.8224119
  61.5580466  45.9958613  15.6981409  62.1544038  45.7714635  14.9838372
  61.6155438  45.2543358  16.3006857  61.1305495  43.4498048   3.5331600
  61.3831015  42.9279570   2.7715063  60.1930054  43.2864194   3.6358284
  66.1748777  42.4533827  11.3406343  66.9611867  42.0353250  10.9896760
  66.4387482  43.3579919  11.5087992  66.3458855  47.8906677   6.0395000
  65.7104688  47.9641303   6.7515905  66.0156261  48.4800276   5.3614079
  71.5757204  42.3909060  12.2439322  72.3082376  41.8208277  12.4777151
  70.8196560  42.0030660  12.6845827  60.8501783  45.3526154   5.7355975
  60.7338041  44.6771058   6.4037059  60.9604043  44.8658528   4.9188128
  63.1933324  44.8136301   9.4402664  62.8291531  44.2866922  10.1515586
  64.0500440  44.4234770   9.2669150  69.0982625  36.1030634  16.7033930
  68.7665950  36.9726045  16.4795145  68.5028238  35.7866918  17.3827961
  62.8338811  39.8426201   4.4364013  63.0013214  40.7106437   4.8034484
  62.6435980  40.0053483   3.5125302  65.5914144  48.3043180  16.1029843
  65.2914867  49.2068219  15.9945650  65.2465204  48.0375363  16.9550996
  59.0426626  44.7556977  12.1366548  58.1177122  44.6233191  12.3444239
  59.2911039  45.5351196  12.6336490  68.9911288  40.8225720  13.7827280
  68.0828165  40.7541129  13.4886041  68.9398884  41.2997665  14.6109106
  62.8128032  42.2983859   5.4210680  62.6927657  42.7440909   6.2596160
  62.1180620  42.6469176   4.8624218  56.4035437  44.3990250  12.9710337
  56.5327818  44.6524729  13.8849748  55.7232888  44.9917958  12.6514992
  60.5734924  55.0687500   9.0700811  60.4958954  56.0195325   9.1489291
  59.9696568  54.7233373   9.7275737  63.0652154  42.2415366  21.7262178
  62.2885488  42.8009286  21.7165042  63.7042717  42.7272149  22.2477048
  70.8572935  39.0242159  15.5605154  70.2147315  39.3174692  14.9144949
  70.3527863  38.9095079  16.3658351  68.5113098  42.7705332   6.2491014
  69.4230954  43.0032718   6.0738711  68.0022745  43.3542376   5.6866092
  61.3198526  45.0500819  21.2880145  62.0613211  45.5885863  21.0114968
  60.6135512  45.6767108  21.4451697  66.7953866  47.1929960  19.8852306
  67.2037222  46.7512370  19.1406939  66.0731127  46.6182587  20.1386499
  63.1484936  42.1302566  17.2585863  63.9946131  42.5541980  17.4020512
  63.0883574  41.4736191  17.9524426  67.1182681  47.7531150  13.6404595
  66.4891543  47.9176864  12.9380663  66.7308343  48.1672760  14.4115559
  70.9971912  48.6885588  10.9948959  70.3122951  49.0684489  10.4445992
  71.0815762  49.2980915  11.7280907  66.2984381  39.7906935  18.9167037
  66.0545313  40.5448995  18.3801313  66.5744312  40.1692282  19.7514284
  68.2522844  46.3345547  17.5944302  68.4639739  46.9777307  16.9178683
  68.2052592  45.5007864  17.1266232  65.8549073  38.9463368  14.4980875
  64.9933552  39.2444621  14.7897612  65.8811508  39.1633767  13.5661907
  62.6710642  47.4905558  10.9054680  63.1348988  47.7693261  10.1159303
  62.4067441  46.5889003  10.7227771  59.5634723  47.0377040  13.8434443
  60.1336081  47.4664308  13.2051928  60.1542835  46.7559624  14.5418629
  61.6079528  43.6128711   7.7144245  62.3103572  44.0649754   8.1818172
  61.2760157  42.9712529   8.3424138  60.0559890  42.2040467  22.0895455
  59.4258551  42.8856748  22.3230852  59.9495978  42.0923549  21.1448593
  55.3504862  41.8712263  13.0161379  54.5603916  42.1269792  12.5401490
  55.8416110  42.6860601  13.1213419  69.3668672  49.2117502  15.7666660
  70.1886116  48.8097690  15.4849341  69.3631075  49.1085737  16.7182776
  57.3019608  42.2356843   9.9744856  56.5050771  42.3475537  10.4928351
  57.0745200  42.5743495   9.1085746  63.1325275  48.7601546  17.9227370
  63.1969708  49.2221953  18.7585542  62.4236199  48.1298911  18.0509680
  53.6342565  42.1242754  15.4476370  53.8850604  43.0089764  15.7133946
  54.1702114  41.9447355  14.6751462  77.4574665  45.5556251  12.1151631
  76.7038373  44.9863649  11.9595636  77.5922206  45.5218915  13.0622266
  62.8473293  50.4269653   7.7906351  62.7118968  51.2721189   8.2191198
  63.3883106  50.6288931   7.0272284  59.3340633  36.5061233  24.4520706
  58.9407578  35.9527432  25.1268350  60.1506773  36.8171812  24.8427223
  56.3002690  47.9445091   8.3634276  56.8127211  48.7388342   8.5139840
  56.9525403  47.2471382   8.2967877  58.1097575  51.0610848  10.4457029
  58.2864204  51.9828812  10.2578013  58.9054409  50.7469267  10.8751409
  62.2508594  37.9219112  22.0440962  62.9918307  38.5226265  21.9645425
  62.4826517  37.1796750  21.4859005  57.3949932  43.1075479  20.3219192
  57.2803447  42.2060737  20.6226291  56.5394449  43.3539176  19.9704009
  59.2328891  52.5789021  16.4467371  59.7836316  52.4506085  15.6744365
  58.3940367  52.8783910  16.0962264  63.0296062  48.8440149  20.7911602
  63.5624398  48.0828437  20.5610910  62.5010143  48.5513801  21.5335757
  66.1965757  33.9500215  16.3205244  65.8530026  34.8401857  16.2444355
  66.5644719  33.7601873  15.4574829  54.2651607  46.2733746   9.1393846
  55.1026829  46.6830754   8.9227554  54.4429875  45.3333188   9.1094040
  66.1616039  43.9408826   4.8277679  65.6462663  44.7113431   5.0666067
  65.8893348  43.2673962   5.4510741  63.7463150  38.7858527   9.8862918
  62.8904747  38.3965377   9.7068556  64.1590102  38.8650488   9.0262703
  65.2762297  36.3204870  14.2854477  64.7727093  36.2835005  13.4722283
  65.5692904  37.2297613  14.3451134  61.5205183  36.4043600  13.2920659
  62.3858180  36.2086409  12.9326548  61.5882692  36.1753952  14.2190016
  71.1350314  46.6941181   6.7630853  70.3579756  46.3552340   6.3186015
  71.8141794  46.6993804   6.0885818  65.9502343  41.8135918   6.6537460
  65.6452478  42.1282068   7.5047604  66.9032785  41.8917338   6.6964793
  64.3948774  47.9726142   8.3030414  63.8670136  47.2378901   7.9903652
  63.8936277  48.7500818   8.0570383  69.3741620  46.1675162  13.4197461
  68.7165295  46.8574424  13.5077589  70.1782020  46.5571594  13.7631447
  59.1267502  38.6345808  10.6637026  59.7011254  38.4120989   9.9310219
  59.7138484  38.7034502  11.4165627  68.1847079  44.5219535  11.4701402
  68.6978961  45.1549527  11.9723112  68.8348303  43.9220730  11.1044762
  59.4537089  40.6650269   4.6832911  58.6174401  41.0024955   5.0042186
  59.3141859  40.5299249   3.7460048  61.4290170  35.5087057   9.3912095
  60.7754582  35.1936074   8.7668710  61.3870644  34.8862797  10.1171918
  62.5401375  45.7906352   1.3065387  61.6328436  45.5595605   1.5056536
  63.0372407  44.9943971   1.4939369  65.4469453  54.5003859   4.2262074
  64.7731152  54.8035556   4.8347031  65.8335275  55.3032939   3.8767531
  64.6627910  41.9968990  13.7159743  63.7450471  42.2183937  13.5581431
  65.0788054  42.0715301  12.8571450  65.4462958  43.3960406   8.8462423
  66.1934777  43.9081803   8.5369545  65.7154547  43.0744459   9.7066817
  63.7189608  45.8918947   5.8289377  62.8100827  45.6077980   5.9261847
  63.7484692  46.3118025   4.9692684  68.9508875  49.5025536   9.5980545
  68.4971203  48.6616446   9.6545735  68.3202842  50.1386935   9.9355325
  67.8941795  40.4317522  10.8281212  67.1564552  39.9194909  11.1591455
  68.1468569  39.9917904  10.0164489  67.3941815  51.3402033  10.5330363
  67.6864789  51.9007090   9.8142729  67.9040435  51.6330594  11.2883522
  67.9953422  33.2093774  11.4222982  68.3012299  32.3491138  11.1348897
  68.7206027  33.8011395  11.2221976  54.2877778  43.6124461   9.8104580
  54.0902178  43.0193822   9.0855646  53.7324442  43.3076671  10.5280518
  62.2674502  43.5047567  11.9299173  62.3223112  42.5521404  11.8541649
  61.4565704  43.6607006  12.4140471  63.4165696  47.4327690   3.1677456
  62.9785126  46.7163549   2.7083093  64.1576137  47.6603805   2.6062547
  60.2066862  42.1224627   9.6889552  59.3934728  42.4218798  10.0954744
  60.7025856  41.7280316  10.4064034  62.3575440  52.1182384  11.6223816
  62.3151619  52.3443230  10.6932348  63.2738139  51.8845759  11.7709617
  65.8041074  42.5866452  18.5204446  66.1590461  42.8137925  19.3798911
  66.4513205  42.9184828  17.8981701  71.5338811  45.7084887   9.2253775
  71.3956709  45.8986483   8.2974964  71.1775029  46.4704270   9.6821826
  59.6980937  39.6942983  15.3050787  60.3380316  39.5531742  14.6073750
  58.8658467  39.4077496  14.9289389  71.5608190  47.7761414  14.2365046
  71.9944697  47.6836704  15.0848100  72.2739771  47.7518915  13.5985062
  60.4741241  48.9945413  11.4185779  61.2681839  48.4995733  11.2168354
  59.7632933  48.4663276  11.0553485  65.2936085  51.3763509  15.7698147
  65.3473107  51.9454445  16.5375863  64.4250866  51.5465394  15.4052184
  56.7824004  43.1388495   7.4945532  55.8521592  43.0772950   7.7115494
  56.8781476  42.6164448   6.6982173  56.7009553  39.6643308  10.0823773
  56.9616370  40.5788641   9.9732934  57.5226725  39.1967750  10.2320386
  58.1734478  41.0781065  17.2522598  58.8457532  40.8698427  16.6035247
  57.3464265  40.8803151  16.8127830  72.4223740  47.8185115  16.7697931
  72.6159630  48.7230926  17.0157206  72.3224358  47.3592534  17.6036517
  64.0760050  37.7043006  19.2688259  63.4287966  38.4032955  19.1752735
  64.8461066  38.1379150  19.6364507  64.2524185  45.5423771  17.3285079
  65.1816245  45.6934930  17.1554046  63.8315215  45.6307791  16.4733725
  63.0512517  49.5674435  15.0983616  62.9123602  49.1993219  15.9709554
  62.2627113  50.0822074  14.9267574  63.6460669  54.6683532   6.4409153
  63.8212424  54.1971575   7.2554775  62.9593457  55.2949298   6.6690413
  64.6017732  48.9456038  12.4872454  64.2667564  48.9056808  13.3830104
  64.1021677  48.2800754  12.0142864  58.5761976  44.3523668  18.0125035
  58.4381774  43.6203907  18.6136574  59.4866899  44.2632568  17.7309223
  67.5376923  46.2912072   2.7609514  66.9206094  45.5658900   2.6642566
  67.0693412  47.0521432   2.4176588  61.2044276  44.0643627  17.5008715
  61.9143895  43.4236819  17.4595333  61.1613585  44.3156522  18.4234896
  59.9173210  41.0508845  19.3204354  59.3810567  40.5999583  19.9725951
  59.3289919  41.1854754  18.5774819  58.2121754  57.8172894  13.2149013
  58.4518352  58.4491418  13.8928031  57.3690950  57.4660934  13.5014372
  59.3275469  40.5097496   1.8830818  58.4504936  40.3886297   1.5193065
  59.8033222  39.7183575   1.6309707  69.1948462  48.9650564  18.6529274
  68.3075241  48.6276486  18.7755673  69.7647013  48.2333596  18.8898039
  50.8477609  45.2974656  11.9772325  51.5348649  44.9836386  11.3893340
  50.6925738  46.2016021  11.7039576  55.6512332  40.1864853  16.4057349
  55.5670520  39.5790522  15.6707759  54.8295038  40.6773871  16.4066845
  62.7249616  53.6252017  15.6190517  62.6519787  54.4306988  16.1309821
  62.2827009  53.8243983  14.7938538  62.5139395  52.8623787   9.1293338
  61.7306917  53.4045467   9.2231563  63.2132141  53.3797766   9.5287580
  65.8236045  38.6718416  11.7727544  66.3204745  37.9188379  11.4528614
  65.0523027  38.7082733  11.2070753  73.6765803  44.3758782  13.4145835
  73.6655679  45.2583497  13.0439768  72.8083182  44.0230333  13.2200372
  65.1848299  53.5238851  17.7748675  65.8976271  54.1586316  17.7024577
  64.6938328  53.6202717  16.9588677  66.9065826  47.4290103   9.3465967
  65.9722105  47.5491566   9.1770671  67.0842495  46.5262570   9.0825977
  62.4071014  40.8135799  11.4999228  62.0368802  40.2606840  12.1880134
  62.9030107  40.2093933  10.9474228  70.2938378  43.2707423   9.8816001
  70.7598830  44.1035414   9.8076304  70.7445878  42.8052404  10.5861260
  60.2360213  51.2733294  18.5954246  60.9369672  51.9069777  18.7483641
  59.7655328  51.6148026  17.8349886  68.3614609  49.6151244   6.8802153
  68.6374453  49.5007839   7.7896027  67.4919107  49.2168729   6.8414326
  68.2655040  35.6388010  13.9206903  67.3518120  35.8692237  14.0889110
  68.6948142  35.7226454  14.7720935  68.0361499  43.8277902  16.4206797
  67.3832949  44.0753809  15.7659249  68.4141879  43.0142040  16.0869274
  64.9968673  53.8637595  10.5234967  65.1791067  53.0459251  10.9862719
  65.8201659  54.0805287  10.0859857  65.3310838  52.7905780   7.7850015
  65.8598605  52.2798235   7.1720178  65.5939058  52.4748310   8.6495548
  64.0849072  44.5697713  22.9072834  63.4089709  44.4691842  23.5775209
  64.9076706  44.4136926  23.3708831  55.8327931  50.8069649  15.5285349
  56.4181368  50.0613337  15.6613253  55.6352769  51.1173606  16.4122013
  58.6866586  53.8420897  10.5447791  58.0176961  54.3267024  10.0611831
  58.5479456  54.0890117  11.4591170  50.4245586  43.3775249  14.2489792
  50.4629685  42.8438840  15.0426910  49.9185878  42.8510455  13.6300769
  62.8271855  55.8764640  17.1430450  63.3790163  56.0396262  17.9079535
  63.1678048  56.4669078  16.4710475  57.8036348  38.2239790  17.7452334
  57.8677674  39.0854621  17.3329732  57.7403468  37.6113792  17.0124693
  57.2788620  40.2962923  21.3925369  57.9060659  39.9140000  22.0062893
  56.4216539  40.0777124  21.7581061  54.0554163  42.1039352   7.3243724
  54.3507604  41.1950030   7.2710777  53.1542199  42.0827091   7.0024726
  65.9640242  53.8246616  14.1294132  65.8391381  53.0236356  13.6205077
  66.6219333  54.3192809  13.6408102  57.5848410  40.1795348  13.3071272
  56.8634996  40.7931316  13.1678745  58.3741666  40.7153113  13.2287918
  68.0275150  51.6255636  15.7573682  67.0805486  51.5060987  15.6852009
  68.3757923  50.7378134  15.8399943  60.3874724  37.5149775  19.5811924
  60.9109126  37.7612071  20.3438233  60.1687057  38.3469810  19.1615061
  55.7842005  39.7853449   7.4483049  55.4554711  38.9050828   7.2658155
  56.1381375  39.7301118   8.3359438  65.0321584  51.4208352  11.9578034
  64.8846546  50.4925059  12.1385604  65.8575077  51.4428443  11.4735109
  58.8983828  40.0726419   7.8158526  59.2379900  40.6012340   7.0937135
  59.3455948  40.4106825   8.5917093  68.6355705  52.2436911  13.0442907
  69.5602253  52.0379772  12.9067358  68.4671009  51.9953312  13.9532248
  61.5927269  38.4563470  17.2661594  61.2524089  37.6571283  17.6682274
  60.8866275  38.7565181  16.6938428  62.2443741  35.5412782  15.7188917
  63.0669810  35.0673260  15.5967808  62.4881804  36.3203266  16.2187604
  60.8851975  38.5701041   6.0151819  61.6060338  38.9482293   5.5115536
  60.2617279  39.2889918   6.1186797  65.0283098  39.2746190   6.9510151
  65.2446712  40.1570828   6.6498980  64.5477165  38.8832403   6.2215793
  59.7682319  42.2331903  13.5280896  59.6226900  42.5472206  14.4205178
  59.2907523  42.8516803  12.9751795  61.6278702  39.2234451  13.5761786
  61.6140271  38.3275544  13.2394084  62.3451130  39.2305115  14.2100072
  63.4804833  39.6571791  15.6214913  63.2222611  40.5788862  15.6199243
  62.9489873  39.2602226  16.3115377  68.4251022  52.7622578   8.4004998
  68.5987899  52.1969001   7.6478851  68.9179913  53.5623473   8.2184488
  54.2427981  44.7737247  16.4668557  53.6981450  45.5497055  16.5988832
  55.1207331  45.1208052  16.3087679  61.0315598  38.1048831   8.8449356
  61.1531509  37.1765477   9.0440243  60.7417641  38.1187517   7.9327671
  63.9006789  35.7903742  11.9816076  63.9228485  35.8543075  11.0268055
  64.3174848  34.9508250  12.1756582  74.2790413  45.5259001  10.0195298
  74.7221559  44.7766326   9.6214421  73.4016923  45.5169137   9.6369030
  69.4126194  52.0789343   5.5001897  70.1077099  52.6996035   5.7189211
  69.7549344  51.2284694   5.7754275  55.0294003  43.9007144  19.3598714
  54.2875739  44.0489779  19.9463345  54.7086748  44.1615409  18.4965464
  71.3117617  49.5289048   7.0289227  71.8368941  49.8676321   6.3038547
  71.2239970  48.5936063   6.8452362  62.9737666  53.4423122  19.1579104
  63.2824792  53.1972269  20.0301804  63.7713148  53.6469760  18.6697974
  62.9958278  55.5961031  11.3884481  62.5563268  55.1037410  12.0817337
  63.7466395  55.0533999  11.1476556  55.4750617  51.7872572  11.3909109
  56.3008637  51.4876344  11.0107752  55.1244669  51.0180195  11.8398897
  60.4432150  51.1399040  13.4606782  59.8212159  50.4769746  13.1609010
  61.1137017  51.1660172  12.7780430  53.6759222  49.7058899  12.3498042
  52.8391130  49.2781073  12.1682044  53.6482868  49.8991342  13.2868834
  60.5156678  39.6180829  23.0539288  60.5644833  40.4942951  22.6717058
  61.0579192  39.0758222  22.4810932  71.1209398  47.0114418  19.6473154
  71.1707403  46.8464426  20.5888677  71.0123322  46.1441677  19.2571035
  60.0045657  49.6902964   6.9365243  60.1533777  50.3738428   6.2831916
  60.8112101  49.6708054   7.4514699  68.4113161  42.9945346  20.9632461
  69.3123024  42.8551811  20.6716458  68.4861135  43.1599801  21.9030638
  62.7455966  40.3712201  19.8085647  61.8759276  40.6645767  19.5368236
  62.9815446  40.9552646  20.5292911  73.8223278  46.9964239  12.4117746
  74.6570169  47.4354044  12.5755306  73.9582406  46.5202893  11.5925992
  70.8714783  44.5543974  18.3595233  71.3468905  44.7471621  17.5514085
  69.9480349  44.6103160  18.1138617  57.7598290  45.7168141   7.9426312
  57.5144332  44.8130471   8.1406522  57.9294205  45.7185292   7.0005790
  65.4495000  36.5891818  17.3251067  65.9676944  37.3252845  16.9997556
  65.0950133  36.8955811  18.1597827  57.0293938  41.4496499   5.4412473
  56.3363183  41.5240854   4.7852509  56.7845690  40.6856843   5.9633990
  65.7007594  33.0092100  12.8451964  65.9809348  32.3415289  13.4712391
  66.4858201  33.2021196  12.3326628  63.5041063  52.1851094   4.4076990
  62.9315030  52.8041281   3.9547462  64.0773856  52.7350456   4.9416912
  69.5716452  41.4309734  16.5923539  70.5233875  41.5307832  16.6135763
  69.4019903  40.6388003  17.1021623  67.5930832  38.5165318  16.7782940
  66.9980764  38.7970330  16.0829429  67.3080529  39.0059219  17.5499681
  66.7238322  52.4688244   5.5385573  67.6568996  52.4033806   5.7418448
  66.6361535  53.3044511   5.0800105  69.3526339  51.7854115   2.4989520
  69.2739971  51.4513978   3.3925278  70.1736006  52.2775883   2.4980992
  72.0504530  44.6515854  15.7065839  72.0180850  43.7131855  15.8925523
  72.6605154  44.7299891  14.9731664  63.8887861  43.5211907   1.7493043
  64.8346966  43.3918115   1.8181461  63.5102106  42.7826569   2.2262471
  72.1999019  41.4426897  15.7524122  71.6838067  40.6585354  15.5654051
  73.0838967  41.1145614  15.9170641  69.8609746  35.1867913  11.7119935
  69.6634567  34.8783001  12.5963267  70.4709451  35.9129552  11.8417864
  77.8681080  45.7131861  14.8471876  78.5984469  45.4517149  15.4079579
  77.2588026  44.9760583  14.8873944  75.9496377  43.8539723  15.4446327
  75.2229541  43.7195688  14.8362818  75.5343664  44.1616552  16.2503045
  63.7726554  47.5729653  23.2093700  64.6929563  47.7508252  23.4033746
  63.7376137  46.6285699  23.0573399  62.0730778  41.4461883   1.6847928
  61.1662234  41.1494996   1.7610642  62.3506759  41.1491702   0.8182214
  52.9908719  42.7668247  12.1346974  52.6711503  41.9133555  11.8421348
  52.4442147  42.9816825  12.8904942  56.7688626  45.4830688  15.8516481
  56.9874636  46.4147796  15.8704515  57.1814400  45.1238662  16.6371285
  63.6892844  35.9898773   7.8392169  62.8793572  35.6445858   8.2147415
  64.3777261  35.6806317   8.4279781  65.6183392  35.0676820   9.4616466
  66.1714431  35.4872273  10.1206489  65.8553479  34.1412568   9.5039422
  61.6416492  41.0563894  25.2419230  61.5413218  42.0058251  25.1731321
  61.4238034  40.7282132  24.3695300  60.8429563  38.3048819   1.8259907
  61.7048727  38.6303717   2.0855725  61.0279907  37.5180315   1.3132973
  52.8596979  46.3871158  14.1040096  52.1660450  45.9725111  13.5910050
  53.6069970  46.4291695  13.5073515  68.9962199  37.1777345   8.9695130
  68.4160868  37.8362149   8.5873183  68.7298132  36.3554690   8.5582548
  67.4465766  36.5782403  11.1716451  67.9465544  36.6898937  10.3630769
  68.0901374  36.2743456  11.8117259  61.5047762  44.4861032  24.0584292
  61.0214843  45.2861393  24.2648181  61.5908701  44.4968977  23.1051736
  54.7733721  46.3189412  11.9806111  54.7504409  46.4177099  11.0287994
  55.0834358  47.1654563  12.3023277  57.4321099  48.3765567  16.0952725
  58.3864353  48.3449509  16.0282657  57.2333623  47.9156191  16.9102951
  58.0220481  46.9466683  18.6623523  58.8413370  47.4410762  18.6858360
  58.2957289  46.0298651  18.6341090  67.7787077  39.3377435   8.0251478
  66.8912932  39.6227086   7.8071673  68.1941066  39.1771199   7.1778755
  71.1301614  39.3623956  11.7405818  71.9062004  39.8520409  12.0130435
  70.4049748  39.7882011  12.1977687  73.5674172  40.0751576  12.7979758
  74.1618663  39.8347312  12.0873067  73.6400756  39.3558706  13.4253295
  55.7871328  53.9185187  13.1122923  55.6525796  53.1585588  12.5460921
  55.3703390  54.6426086  12.6451712  66.9230291  49.1022110   2.1199498
  67.6266141  49.3072113   2.7357154  66.1992940  49.6698872   2.3848582
  67.7528101  44.8531971   8.2401769  67.6963303  45.3100523   7.4009401
  68.3056444  44.0922656   8.0624611  71.5632907  40.6421703   9.0651888
  71.3069841  40.2418339   9.8960096  70.9385775  41.3565497   8.9402027
  75.8745245  43.3817777  11.5723180  75.3144803  43.4510966  12.3454742
  75.2688748  43.2058761  10.8522676  58.9440454  54.8154504  13.3241366
  58.8272838  55.7599936  13.2220056  58.1232900  54.5128065  13.7127165
  68.8316988  49.5404639   4.1697959  69.6662592  49.1085838   3.9875433
  68.6701331  49.3686653   5.0974853  68.4862880  46.0436753   5.5354298
  68.4311684  45.8781024   4.5942742  67.8608936  46.7512786   5.6916488
  53.2755395  41.2804817  19.3615720  53.9214259  40.7703771  19.8502945
  53.0672547  42.0173499  19.9359145  61.7959006  35.5444862   5.1139616
  61.7837676  36.4886702   5.2707887  62.6882428  35.3615007   4.8199077
  59.9694968  55.4682766  16.5397294  60.8722215  55.5006376  16.8563789
  59.7432338  54.5383216  16.5543630  61.7248570  54.2213752  13.2007373
  60.7744201  54.2215614  13.0871745  62.0281056  53.4746487  12.6843407
  65.6111125  32.1387638   9.3685553  64.8443521  31.5846125   9.5142235
  66.0221830  32.2109507  10.2299705  57.6152886  38.4272434  23.4590734
  58.4784348  38.0709239  23.6694059  57.0418297  38.0886329  24.1466139
  77.4601263  60.0574290  14.2653135  78.0979673  59.9381038  13.5616475
  77.3422106  61.0055134  14.3241087  74.2690970  60.0101719  14.2014660
  73.9309481  59.8942783  13.3135195  75.1380738  59.6092884  14.1815666
  70.1277785  61.8637195  10.1911551  69.5642650  61.7727132   9.4227839
  70.0130180  61.0437099  10.6714043  74.7510753  61.1636570  20.1600865
  74.7399393  60.7689369  19.2881369  74.9131392  60.4302643  20.7534637
  67.6742217  63.3588387  13.0295771  68.4663509  63.0179211  12.6142071
  67.9138867  63.4683362  13.9497925  69.6332971  62.6197300   5.9013150
  70.4063847  62.0726287   5.7626026  69.9858370  63.4841549   6.1127612
  71.4718014  63.9473682  19.1080049  71.1807880  64.8519313  18.9926716
  72.1074998  63.9890210  19.8224119  72.3974221  61.3250531  15.6981409
  72.9937793  61.1006553  14.9838372  72.4549192  60.5835276  16.3006857
  71.9699249  58.7789966   3.5331600  72.2224770  58.2571487   2.7715063
  71.0323808  58.6156111   3.6358284  77.0142532  57.7825744  11.3406343
  77.8005621  57.3645167  10.9896760  77.2781236  58.6871837  11.5087992
  77.1852609  63.2198595   6.0395000  76.5498442  63.2933221   6.7515905
  76.8550016  63.8092193   5.3614079  82.4150959  57.7200978  12.2439322
  83.1476131  57.1500194  12.4777151  81.6590315  57.3322578  12.6845827
  71.6895538  60.6818072   5.7355975  71.5731796  60.0062975   6.4037059
  71.7997798  60.1950446   4.9188128  74.0327079  60.1428219   9.4402664
  73.6685286  59.6158840  10.1515586  74.8894195  59.7526688   9.2669150
  79.9376379  51.4322552  16.7033930  79.6059704  52.3017963  16.4795145
  79.3421993  51.1158836  17.3827961  73.6732566  55.1718119   4.4364013
  73.8406968  56.0398355   4.8034484  73.4829735  55.3345400   3.5125302
  76.4307899  63.6335098  16.1029843  76.1308622  64.5360136  15.9945650
  76.0858958  63.3667281  16.9550996  69.8820380  60.0848894  12.1366548
  68.9570877  59.9525109  12.3444239  70.1304794  60.8643114  12.6336490
  79.8305043  56.1517638  13.7827280  78.9221920  56.0833046  13.4886041
  79.7792638  56.6289583  14.6109106  73.6521787  57.6275776   5.4210680
  73.5321412  58.0732827   6.2596160  72.9574375  57.9761094   4.8624218
  67.2429191  59.7282168  12.9710337  67.3721573  59.9816647  13.8849748
  66.5626643  60.3209876  12.6514992  71.4128679  70.3979418   9.0700811
  71.3352708  71.3487243   9.1489291  70.8090322  70.0525290   9.7275737
  81.6966689  54.3534076  15.5605154  81.0541069  54.6466609  14.9144949
  81.1921618  54.2386997  16.3658351  79.3506853  58.0997249   6.2491014
  80.2624709  58.3324636   6.0738711  78.8416500  58.6834294   5.6866092
  72.1592281  60.3792737  21.2880145  72.9006965  60.9177781  21.0114968
  71.4529266  61.0059026  21.4451697  77.6347620  62.5221877  19.8852306
  78.0430976  62.0804288  19.1406939  76.9124882  61.9474505  20.1386499
  73.9878690  57.4594484  17.2585863  74.8339886  57.8833898  17.4020512
  73.9277328  56.8028108  17.9524426  77.9576435  63.0823068  13.6404595
  77.3285297  63.2468782  12.9380663  77.5702097  63.4964677  14.4115559
  81.8365667  64.0177506  10.9948959  81.1516705  64.3976407  10.4445992
  81.9209516  64.6272832  11.7280907  77.1378136  55.1198852  18.9167037
  76.8939068  55.8740913  18.3801313  77.4138066  55.4984200  19.7514284
  79.0916599  61.6637465  17.5944302  79.3033494  62.3069225  16.9178683
  79.0446347  60.8299781  17.1266232  76.6942827  54.2755285  14.4980875
  75.8327307  54.5736539  14.7897612  76.7205262  54.4925684  13.5661907
  73.5104397  62.8197476  10.9054680  73.9742742  63.0985179  10.1159303
  73.2461195  61.9180921  10.7227771  70.4028478  62.3668957  13.8434443
  70.9729835  62.7956226  13.2051928  70.9936590  62.0851542  14.5418629
  72.4473283  58.9420628   7.7144245  73.1497326  59.3941672   8.1818172
  72.1153911  58.3004447   8.3424138  66.1898617  57.2004181  13.0161379
  65.3997671  57.4561709  12.5401490  66.6809864  58.0152519  13.1213419
  80.2062426  64.5409420  15.7666660  81.0279870  64.1389607  15.4849341
  80.2024829  64.4377654  16.7182776  68.1413362  57.5648760   9.9744856
  67.3444526  57.6767454  10.4928351  67.9138954  57.9035412   9.1085746
  73.9719030  64.0893463  17.9227370  74.0363462  64.5513871  18.7585542
  73.2629954  63.4590828  18.0509680  64.4736320  57.4534671  15.4476370
  64.7244358  58.3381681  15.7133946  65.0095868  57.2739273  14.6751462
  88.2968420  60.8848169  12.1151631  87.5432128  60.3155567  11.9595636
  88.4315961  60.8510833  13.0622266  73.6867048  65.7561571   7.7906351
  73.5512722  66.6013107   8.2191198  74.2276860  65.9580849   7.0272284
  67.1396445  63.2737009   8.3634276  67.6520966  64.0680259   8.5139840
  67.7919158  62.5763299   8.2967877  68.9491330  66.3902765  10.4457029
  69.1257958  67.3120730  10.2578013  69.7448163  66.0761184  10.8751409
  75.3135524  66.3785137  21.9206693  74.8699378  65.5921516  21.6027597
  75.9752738  66.5664288  21.2550583  70.0722645  67.9080939  16.4467371
  70.6230070  67.7798002  15.6744365  69.2334121  68.2075828  16.0962264
  77.4116762  66.6587937  19.9488094  77.3935237  67.4796818  19.4568363
  78.3336682  66.5342013  20.1738235  73.8689816  64.1732067  20.7911602
  74.4018153  63.4120355  20.5610910  73.3403897  63.8805719  21.5335757
  77.0359511  49.2792133  16.3205244  76.6923781  50.1693774  16.2444355
  77.4038474  49.0893790  15.4574829  65.1045362  61.6025663   9.1393846
  65.9420584  62.0122672   8.9227554  65.2823629  60.6625105   9.1094040
  77.0009794  59.2700744   4.8277679  76.4856417  60.0405349   5.0666067
  76.7287102  58.5965880   5.4510741  74.5856905  54.1150445   9.8862918
  73.7298501  53.7257295   9.7068556  74.9983857  54.1942405   9.0262703
  76.1156052  51.6496788  14.2854477  75.6120847  51.6126923  13.4722283
  76.4086658  52.5589531  14.3451134  72.3598937  51.7335518  13.2920659
  73.2251934  51.5378326  12.9326548  72.4276446  51.5045869  14.2190016
  76.7896097  57.1427836   6.6537460  76.4846233  57.4573985   7.5047604
  77.7426539  57.2209256   6.6964793  75.2342529  63.3018059   8.3030414
  74.7063890  62.5670819   7.9903652  74.7330032  64.0792736   8.0570383
  80.2135375  61.4967080  13.4197461  79.5559049  62.1866341  13.5077589
  81.0175774  61.8863512  13.7631447  69.9661256  53.9637726  10.6637026
  70.5405008  53.7412907   9.9310219  70.5532239  54.0326420  11.4165627
  79.0240834  59.8511453  11.4701402  79.5372715  60.4841444  11.9723112
  79.6742058  59.2512648  11.1044762  70.2930844  55.9942187   4.6832911
  69.4568156  56.3316873   5.0042186  70.1535613  55.8591166   3.7460048
  72.2683924  50.8378975   9.3912095  71.6148337  50.5227992   8.7668710
  72.2264398  50.2154715  10.1171918  75.5021665  57.3260908  13.7159743
  74.5844226  57.5475855  13.5581431  75.9181808  57.4007219  12.8571450
  76.2856712  58.7252324   8.8462423  77.0328531  59.2373721   8.5369545
  76.5548302  58.4036376   9.7066817  74.5583362  61.2210864   5.8289377
  73.6494582  60.9369897   5.9261847  74.5878446  61.6409943   4.9692684
  79.7902630  64.8317454   9.5980545  79.3364957  63.9908364   9.6545735
  79.1596597  65.4678852   9.9355325  78.7335549  55.7609440  10.8281212
  77.9958306  55.2486826  11.1591455  78.9862323  55.3209822  10.0164489
  78.2335569  66.6693951  10.5330363  78.5258544  67.2299008   9.8142729
  78.7434190  66.9622512  11.2883522  78.8347177  48.5385692  11.4222982
  79.1406054  47.6783055  11.1348897  79.5599782  49.1303312  11.2221976
  65.1271533  58.9416379   9.8104580  64.9295933  58.3485739   9.0855646
  64.5718197  58.6368589  10.5280518  73.1068257  58.8339485  11.9299173
  73.1616866  57.8813321  11.8541649  72.2959459  58.9898924  12.4140471
  71.0460616  57.4516545   9.6889552  70.2328482  57.7510715  10.0954744
  71.5419611  57.0572234  10.4064034  73.1969194  67.4474302  11.6223816
  73.1545373  67.6735148  10.6932348  74.1131893  67.2137676  11.7709617
  76.6434828  57.9158369  18.5204446  76.9984216  58.1429842  19.3798911
  77.2906959  58.2476746  17.8981701  82.3732565  61.0376805   9.2253775
  82.2350464  61.2278401   8.2974964  82.0168784  61.7996188   9.6821826
  82.4001945  63.1053332  14.2365046  82.8338451  63.0128621  15.0848100
  83.1133525  63.0810833  13.5985062  71.3134995  64.3237331  11.4185779
  72.1075594  63.8287651  11.2168354  70.6026688  63.7955194  11.0553485
  76.1329840  66.7055426  15.7698147  76.1866862  67.2746363  16.5375863
  75.2644621  66.8757311  15.4052184  67.6217759  58.4680412   7.4945532
  66.6915347  58.4064868   7.7115494  67.7175231  57.9456365   6.6982173
  67.5403308  54.9935225  10.0823773  67.8010125  55.9080559   9.9732934
  68.3620480  54.5259668  10.2320386  83.2617494  63.1477033  16.7697931
  83.4553384  64.0522843  17.0157206  83.1618112  62.6884452  17.6036517
  74.9153805  53.0334923  19.2688259  74.2681720  53.7324873  19.1752735
  75.6854820  53.4671067  19.6364507  75.0917939  60.8715688  17.3285079
  76.0209999  61.0226848  17.1554046  74.6708969  60.9599709  16.4733725
  73.8906271  64.8966353  15.0983616  73.7517357  64.5285137  15.9709554
  73.1020867  65.4113992  14.9267574  75.4411486  64.2747955  12.4872454
  75.1061319  64.2348725  13.3830104  74.9415432  63.6092671  12.0142864
  72.0438031  59.3935545  17.5008715  72.7537649  58.7528737  17.4595333
  72.0007339  59.6448440  18.4234896  80.0324810  66.3302898  20.4215294
  79.9737356  65.6462118  19.7545877  80.4344328  67.0721888  19.9695920
  69.0515508  73.1464812  13.2149013  69.2912107  73.7783336  13.8928031
  68.2084705  72.7952852  13.5014372  70.1669224  55.8389414   1.8830818
  69.2898690  55.7178215   1.5193065  70.6426977  55.0475492   1.6309707
  80.0342217  64.2942482  18.6529274  79.1468996  63.9568404  18.7755673
  80.6040768  63.5625513  18.8898039  61.6871364  60.6266574  11.9772325
  62.3742404  60.3128304  11.3893340  61.5319493  61.5307938  11.7039576
  73.5643370  68.9543934  15.6190517  73.4913542  69.7598906  16.1309821
  73.1220763  69.1535900  14.7938538  73.3533150  68.1915704   9.1293338
  72.5700672  68.7337385   9.2231563  74.0525895  68.7089684   9.5287580
  76.6629800  54.0010334  11.7727544  77.1598500  53.2480296  11.4528614
  75.8916781  54.0374651  11.2070753  84.5159557  59.7050699  13.4145835
  84.5049434  60.5875415  13.0439768  83.6476937  59.3522250  13.2200372
  76.0242054  68.8530768  17.7748675  76.7370026  69.4878233  17.7024577
  75.5332082  68.9494634  16.9588677  77.7459581  62.7582021   9.3465967
  76.8115859  62.8783484   9.1770671  77.9236249  61.8554488   9.0825977
  73.2464769  56.1427717  11.4999228  72.8762556  55.5898757  12.1880134
  73.7423861  55.5385850  10.9474228  81.1332132  58.5999340   9.8816001
  81.5992584  59.4327332   9.8076304  81.5839633  58.1344322  10.5861260
  71.0753967  66.6025212  18.5954246  71.7763427  67.2361695  18.7483641
  70.6049082  66.9439943  17.8349886  79.2008363  64.9443162   6.8802153
  79.4768207  64.8299756   7.7896027  78.3312862  64.5460647   6.8414326
  79.1048795  50.9679927  13.9206903  78.1911875  51.1984154  14.0889110
  79.5341896  51.0518371  14.7720935  78.8755253  59.1569819  16.4206797
  78.2226703  59.4045727  15.7659249  79.2535633  58.3433958  16.0869274
  75.8362427  69.1929513  10.5234967  76.0184822  68.3751168  10.9862719
  76.6595413  69.4097205  10.0859857  66.6721685  66.1361567  15.5285349
  67.2575122  65.3905255  15.6613253  66.4746524  66.4465524  16.4122013
  69.5260341  69.1712814  10.5447791  68.8570716  69.6558942  10.0611831
  69.3873210  69.4182035  11.4591170  61.2639340  58.7067167  14.2489792
  61.3023440  58.1730758  15.0426910  60.7579633  58.1802373  13.6300769
  73.6665609  71.2056558  17.1430450  74.2183917  71.3688179  17.9079535
  74.0071803  71.7960996  16.4710475  78.5176483  66.0317815  22.9979104
  79.0616387  66.6447774  22.5034059  77.9363328  66.5897394  23.5146117
  64.8947918  57.4331269   7.3243724  65.1901359  56.5241948   7.2710777
  63.9935953  57.4119009   7.0024726  76.8033996  69.1538533  14.1294132
  76.6785136  68.3528273  13.6205077  77.4613088  69.6484727  13.6408102
  68.4242165  55.5087266  13.3071272  67.7028750  56.1223234  13.1678745
  69.2135420  56.0445031  13.2287918  78.8668905  66.9547553  15.7573682
  77.9199240  66.8352905  15.6852009  79.2151678  66.0670052  15.8399943
  66.6235759  55.1145367   7.4483049  66.2948465  54.2342746   7.2658155
  66.9775130  55.0593036   8.3359438  75.8715338  66.7500270  11.9578034
  75.7240301  65.8216977  12.1385604  76.6968832  66.7720360  11.4735109
  69.7377582  55.4018337   7.8158526  70.0773655  55.9304258   7.0937135
  70.1849703  55.7398743   8.5917093  79.4749460  67.5728828  13.0442907
  80.3996007  67.3671690  12.9067358  79.3064763  67.3245230  13.9532248
  73.0837495  50.8704700  15.7188917  73.9063564  50.3965178  15.5967808
  73.3275559  51.6495184  16.2187604  71.7245730  53.8992958   6.0151819
  72.4454092  54.2774211   5.5115536  71.1011034  54.6181835   6.1186797
  75.8676852  54.6038107   6.9510151  76.0840467  55.4862745   6.6498980
  75.3870920  54.2124321   6.2215793  70.6076074  57.5623821  13.5280896
  70.4620655  57.8764124  14.4205178  70.1301277  58.1808721  12.9751795
  72.4672457  54.5526369  13.5761786  72.4534025  53.6567462  13.2394084
  73.1844885  54.5597032  14.2100072  74.3198587  54.9863709  15.6214913
  74.0616365  55.9080779  15.6199243  73.7883628  54.5894143  16.3115377
  65.0821736  60.1029165  16.4668557  64.5375204  60.8788973  16.5988832
  65.9601086  60.4499969  16.3087679  71.8709353  53.4340749   8.8449356
  71.9925264  52.5057395   9.0440243  71.5811395  53.4479435   7.9327671
  74.7400543  51.1195659  11.9816076  74.7622240  51.1834992  11.0268055
  75.1568602  50.2800168  12.1756582  85.1184167  60.8550919  10.0195298
  85.5615313  60.1058244   9.6214421  84.2410678  60.8461055   9.6369030
  65.8687758  59.2299061  19.3598714  65.1269494  59.3781697  19.9463345
  65.5480502  59.4907327  18.4965464  73.8131420  68.7715039  19.1579104
  74.1218547  68.5264186  20.0301804  74.6106903  68.9761678  18.6697974
  73.8352033  70.9252949  11.3884481  73.3957023  70.4329328  12.0817337
  74.5860149  70.3825917  11.1476556  66.3144372  67.1164490  11.3909109
  67.1402391  66.8168262  11.0107752  65.9638424  66.3472112  11.8398897
  71.2825905  66.4690958  13.4606782  70.6605914  65.8061663  13.1609010
  71.9530772  66.4952090  12.7780430  64.5152977  65.0350816  12.3498042
  63.6784885  64.6072991  12.1682044  64.4876622  65.2283260  13.2868834
  81.8405278  65.4913869  22.3340425  81.0500822  65.4738008  21.7944925
  81.6038632  66.0302163  23.0889462  81.9603153  62.3406336  19.6473154
  82.0101158  62.1756343  20.5888677  81.8517076  61.4733595  19.2571035
  70.8439412  65.0194882   6.9365243  70.9927532  65.7030346   6.2831916
  71.6505855  64.9999972   7.4514699  83.4621350  64.7603277  19.8915176
  83.1706158  65.1233258  20.7278636  82.8493481  64.0470286  19.7128508
  84.6617032  62.3256157  12.4117746  85.4963923  62.7645961  12.5755306
  84.7976161  61.8494810  11.5925992  81.7108538  59.8835892  18.3595233
  82.1862660  60.0763538  17.5514085  80.7874103  59.9395078  18.1138617
  68.5992045  61.0460059   7.9426312  68.3538087  60.1422389   8.1406522
  68.7687959  61.0477210   7.0005790  76.2888754  51.9183736  17.3251067
  76.8070698  52.6544762  16.9997556  75.9343887  52.2247729  18.1597827
  67.8687692  56.7788417   5.4412473  67.1756937  56.8532772   4.7852509
  67.6239444  56.0148760   5.9633990  76.5401349  48.3384018  12.8451964
  76.8203102  47.6707207  13.4712391  77.3251956  48.5313114  12.3326628
  80.4110207  56.7601652  16.5923539  81.3627630  56.8599750  16.6135763
  80.2413657  55.9679921  17.1021623  78.4324586  53.8457235  16.7782940
  77.8374519  54.1262248  16.0829429  78.1474283  54.3351136  17.5499681
  82.8898285  59.9807772  15.7065839  82.8574605  59.0423772  15.8925523
  83.4998908  60.0591808  14.9731664  74.7281616  58.8503825   1.7493043
  75.6740720  58.7210033   1.8181461  74.3495861  58.1118487   2.2262471
  83.0392773  56.7718815  15.7524122  82.5231822  55.9877272  15.5654051
  83.9232722  56.4437532  15.9170641  80.7003500  50.5159831  11.7119935
  80.5028321  50.2074919  12.5963267  81.3103206  51.2421470  11.8417864
  88.7074835  61.0423779  14.8471876  89.4378223  60.7809067  15.4079579
  88.0981780  60.3052501  14.8873944  86.7890132  59.1831641  15.4446327
  86.0623295  59.0487606  14.8362818  86.3737419  59.4908470  16.2503045
  74.6120308  62.9021571  23.2093700  75.5323318  63.0800170  23.4033746
  74.5769891  61.9577616  23.0573399  72.9124533  56.7753801   1.6847928
  72.0055988  56.4786914   1.7610642  73.1900514  56.4783619   0.8182214
  63.8302473  58.0960165  12.1346974  63.5105257  57.2425473  11.8421348
  63.2835901  58.3108743  12.8904942  67.6082381  60.8122606  15.8516481
  67.8268390  61.7439713  15.8704515  68.0208155  60.4530580  16.6371285
  74.5286598  51.3190691   7.8392169  73.7187327  50.9737776   8.2147415
  75.2171015  51.0098235   8.4279781  76.4577147  50.3968738   9.4616466
  77.0108185  50.8164191  10.1206489  76.6947233  49.4704486   9.5039422
  71.6823317  53.6340736   1.8259907  72.5442481  53.9595635   2.0855725
  71.8673662  52.8472232   1.3132973  63.6990733  61.7163076  14.1040096
  63.0054205  61.3017029  13.5910050  64.4463724  61.7583613  13.5073515
  79.8355954  52.5069263   8.9695130  79.2554623  53.1654067   8.5873183
  79.5691887  51.6846607   8.5582548  78.2859520  51.9074320  11.1716451
  78.7859299  52.0190855  10.3630769  78.9295128  51.6035373  11.8117259
  65.6127476  61.6481330  11.9806111  65.5898164  61.7469017  11.0287994
  65.9228112  62.4946481  12.3023277  68.2714854  63.7057485  16.0952725
  69.2258107  63.6741427  16.0282657  68.0727377  63.2448109  16.9102951
  68.8614236  62.2758601  18.6623523  69.6807125  62.7702680  18.6858360
  69.1351043  61.3590569  18.6341090  78.6180832  54.6669353   8.0251478
  77.7306687  54.9519004   7.8071673  79.0334821  54.5063117   7.1778755
  81.9695368  54.6915874  11.7405818  82.7455758  55.1812327  12.0130435
  81.2443502  55.1173928  12.1977687  84.4067927  55.4043493  12.7979758
  85.0012417  55.1639229  12.0873067  84.4794510  54.6850624  13.4253295
  66.6265082  69.2477104  13.1122923  66.4919550  68.4877505  12.5460921
  66.2097145  69.9718004  12.6451712  78.5921856  60.1823889   8.2401769
  78.5357057  60.6392441   7.4009401  79.1450198  59.4214574   8.0624611
  82.4026662  55.9713621   9.0651888  82.1463596  55.5710257   9.8960096
  81.7779530  56.6857415   8.9402027  86.7138999  58.7109694  11.5723180
  86.1538557  58.7802884  12.3454742  86.1082503  58.5350679  10.8522676
  69.7834208  70.1446421  13.3241366  69.6666592  71.0891854  13.2220056
  68.9626654  69.8419983  13.7127165  64.1149150  56.6096735  19.3615720
  64.7608014  56.0995689  19.8502945  63.9066301  57.3465416  19.9359145
  72.6352760  50.8736779   5.1139616  72.6231430  51.8178619   5.2707887
  73.5276182  50.6906925   4.8199077  70.8088722  70.7974683  16.5397294
  71.7115969  70.8298293  16.8563789  70.5826092  69.8675134  16.5543630
  72.5642324  69.5505670  13.2007373  71.6137955  69.5507531  13.0871745
  72.8674811  68.8038404  12.6843407  76.4504880  47.4679556   9.3685553
  75.6837276  46.9138043   9.5142235  76.8615585  47.5401425  10.2299705
  85.5904507  76.4928488  20.1600865  85.5793148  76.0981286  19.2881369
  85.7525147  75.7594561  20.7534637  82.3111768  79.2765600  19.1080049
  82.0201634  80.1811231  18.9926716  82.9468753  79.3182127  19.8224119
  90.7770134  66.7614469  16.7033930  90.4453459  67.6309880  16.4795145
  90.1815747  66.4450753  17.3827961  78.0822946  75.0574086  12.9710337
  78.2115327  75.3108565  13.8849748  77.4020397  75.6501794  12.6514992
  84.7439663  72.8999201  21.7262178  83.9672997  73.4593121  21.7165042
  85.3830226  73.3855984  22.2477048  92.5360444  69.6825994  15.5605154
  91.8934824  69.9758527  14.9144949  92.0315372  69.5678914  16.3658351
  82.9986035  75.7084654  21.2880145  83.7400720  76.2469698  21.0114968
  82.2923021  76.3350943  21.4451697  88.4741375  77.8513795  19.8852306
  88.8824731  77.4096205  19.1406939  87.7518636  77.2766422  20.1386499
  84.8272445  72.7886402  17.2585863  85.6733640  73.2125815  17.4020512
  84.7671083  72.1320026  17.9524426  87.9771890  70.4490770  18.9167037
  87.7332822  71.2032831  18.3801313  88.2531821  70.8276118  19.7514284
  87.5336582  69.6047203  14.4980875  86.6721061  69.9028457  14.7897612
  87.5599017  69.8217602  13.5661907  81.7347399  72.8624303  22.0895455
  81.1046060  73.5440583  22.3230852  81.6283487  72.7507384  21.1448593
  77.0292371  72.5296099  13.0161379  76.2391425  72.7853627  12.5401490
  77.5203619  73.3444437  13.1213419  84.8112784  79.4185381  17.9227370
  84.8757217  79.8805788  18.7585542  84.1023708  78.7882746  18.0509680
  75.3130074  72.7826589  15.4476370  75.5638113  73.6673599  15.7133946
  75.8489623  72.6031191  14.6751462  81.0128142  67.1645068  24.4520706
  80.6195087  66.6111267  25.1268350  81.8294282  67.4755647  24.8427223
  83.9296103  68.5802948  22.0440962  84.6705816  69.1810101  21.9645425
  84.1614026  67.8380585  21.4859005  79.0737441  73.7659315  20.3219192
  78.9590956  72.8644572  20.6226291  78.2181958  74.0123012  19.9704009
  86.1529278  81.7077055  21.9206693  85.7093133  80.9213434  21.6027597
  86.8146492  81.8956206  21.2550583  84.7083571  79.5023985  20.7911602
  85.2411907  78.7412273  20.5610910  84.1797652  79.2097636  21.5335757
  87.8753266  64.6084050  16.3205244  87.5317535  65.4985692  16.2444355
  88.2432228  64.4185708  15.4574829  86.9549806  66.9788706  14.2854477
  86.4514602  66.9418841  13.4722283  87.2480413  67.8881448  14.3451134
  83.1992692  67.0627435  13.2920659  84.0645689  66.8670244  12.9326548
  83.2670201  66.8337787  14.2190016  83.1077679  66.1670892   9.3912095
  82.4542091  65.8519909   8.7668710  83.0658153  65.5446633  10.1171918
  89.6740931  63.8677610  11.4222982  89.9799808  63.0074973  11.1348897
  90.3993536  64.4595230  11.2221976  87.4828583  73.2450287  18.5204446
  87.8377970  73.4721760  19.3798911  88.1300714  73.5768664  17.8981701
  81.3768446  70.3526818  15.3050787  82.0167825  70.2115577  14.6073750
  80.5445976  70.0661331  14.9289389  79.8521987  71.7364900  17.2522598
  80.5245041  71.5282262  16.6035247  79.0251774  71.5386986  16.8127830
  85.7547559  68.3626841  19.2688259  85.1075475  69.0616791  19.1752735
  86.5248575  68.7962985  19.6364507  89.1626357  78.6275693  22.3438812
  89.0111864  78.3986245  21.4268896  89.1531037  79.5846295  22.3570157
  85.9311694  76.2007606  17.3285079  86.8603754  76.3518766  17.1554046
  85.5102724  76.2891627  16.4733725  80.2549485  75.0107503  18.0125035
  80.1169283  74.2787742  18.6136574  81.1654408  74.9216403  17.7309223
  82.8831785  74.7227462  17.5008715  83.5931404  74.0820655  17.4595333
  82.8401094  74.9740357  18.4234896  81.5960719  71.7092680  19.3204354
  81.0598076  71.2583419  19.9725951  81.0077428  71.8438589  18.5774819
  72.5265118  75.9558491  11.9772325  73.2136158  75.6420222  11.3893340
  72.3713247  76.8599856  11.7039576  77.3299841  70.8448688  16.4057349
  77.2458029  70.2374358  15.6707759  76.5082547  71.3357706  16.4066845
  81.9147722  81.9317130  18.5954246  82.6157181  82.5653613  18.7483641
  81.4442837  82.2731861  17.8349886  89.9442549  66.2971845  13.9206903
  89.0305629  66.5276072  14.0889110  90.3735651  66.3810289  14.7720935
  85.7636581  75.2281548  22.9072834  85.0877218  75.1275677  23.5775209
  86.5864215  75.0720762  23.3708831  72.1033095  74.0359085  14.2489792
  72.1417194  73.5022676  15.0426910  71.5973387  73.5094290  13.6300769
  79.4823857  68.8823625  17.7452334  79.5465183  69.7438456  17.3329732
  79.4190977  68.2697627  17.0124693  78.9576129  70.9546758  21.3925369
  79.5848168  70.5723835  22.0062893  78.1004048  70.7360960  21.7581061
  89.3570238  81.3609733  22.9979104  89.9010142  81.9739691  22.5034059
  88.7757083  81.9189311  23.5146117  79.2635919  70.8379184  13.3071272
  78.5422505  71.4515151  13.1678745  80.0529175  71.3736948  13.2287918
  82.0662233  68.1733610  19.5811924  82.5896634  68.4195907  20.3438233
  81.8474566  69.0053645  19.1615061  83.2714778  69.1147305  17.2661594
  82.9311598  68.3155118  17.6682274  82.5653784  69.4149016  16.6938428
  83.9231250  66.1996618  15.7188917  84.7457319  65.7257096  15.5967808
  84.1669313  66.9787101  16.2187604  81.4469828  72.8915738  13.5280896
  81.3014409  73.2056041  14.4205178  80.9695032  73.5100639  12.9751795
  83.3066211  69.8818286  13.5761786  83.2927780  68.9859380  13.2394084
  84.0238639  69.8888950  14.2100072  85.1592342  70.3155626  15.6214913
  84.9010120  71.2372697  15.6199243  84.6277382  69.9186061  16.3115377
  75.9215490  75.4321083  16.4668557  75.3768959  76.2080891  16.5988832
  76.7994840  75.7791887  16.3087679  85.5794298  66.4487577  11.9816076
  85.6015994  66.5126910  11.0268055  85.9962357  65.6092086  12.1756582
  76.7081512  74.5590979  19.3598714  75.9663248  74.7073614  19.9463345
  76.3874257  74.8199245  18.4965464  82.1944187  70.2764664  23.0539288
  82.2432342  71.1526787  22.6717058  82.7366701  69.7342057  22.4810932
  92.6799032  80.8205787  22.3340425  91.8894576  80.8029926  21.7944925
  92.4432387  81.3594081  23.0889462  92.7996907  77.6698253  19.6473154
  92.8494912  77.5048261  20.5888677  92.6910831  76.8025513  19.2571035
  90.0900670  73.6529182  20.9632461  90.9910533  73.5135646  20.6716458
  90.1648644  73.8183636  21.9030638  84.4243475  71.0296036  19.8085647
  83.5546785  71.3229602  19.5368236  84.6602955  71.6136481  20.5292911
  87.1282509  67.2475653  17.3251067  87.6464453  67.9836680  16.9997556
  86.7737642  67.5539646  18.1597827  87.3795103  63.6675936  12.8451964
  87.6596857  62.9999125  13.4712391  88.1645710  63.8605031  12.3326628
  91.2503961  72.0893570  16.5923539  92.2021384  72.1891667  16.6135763
  91.0807412  71.2971838  17.1021623  89.2718341  69.1749153  16.7782940
  88.6768273  69.4554166  16.0829429  88.9868038  69.6643054  17.5499681
  85.4514063  78.2313489  23.2093700  86.3717072  78.4092088  23.4033746
  85.4163646  77.2869534  23.0573399  74.6696228  73.4252082  12.1346974
  74.3499012  72.5717390  11.8421348  74.1229656  73.6400660  12.8904942
  78.4476135  76.1414523  15.8516481  78.6662145  77.0731631  15.8704515
  78.8601909  75.7822498  16.6371285  83.3204001  71.7147729  25.2419230
  83.2200727  72.6642086  25.1731321  83.1025543  71.3865968  24.3695300
  74.5384488  77.0454994  14.1040096  73.8447959  76.6308946  13.5910050
  75.2857479  77.0875530  13.5073515  83.1835271  75.1444868  24.0584292
  82.7002352  75.9445228  24.2648181  83.2696210  75.1552813  23.1051736
  79.1108608  79.0349402  16.0952725  80.0651862  79.0033345  16.0282657
  78.9121132  78.5740026  16.9102951  79.7007990  77.6050519  18.6623523
  80.5200879  78.0994597  18.6858360  79.9744798  76.6882487  18.6341090
  74.9542904  71.9388652  19.3615720  75.6001768  71.4287606  19.8502945
  74.7460056  72.6757334  19.9359145  87.4796297  79.0069500  24.8607861
  88.3487456  79.1810152  24.4994496  87.0003048  79.8263917  24.7383590
  87.2898634  62.7971474   9.3685553  86.5231030  62.2429960   9.5142235
  87.7009339  62.8693342  10.2299705  79.2940395  69.0856269  23.4590734
  80.1571857  68.7293074  23.6694059  78.7205806  68.7470164  24.1466139
  91.8521896  82.4936986  24.4520706  91.4588842  81.9403185  25.1268350
  92.6688037  82.8047565  24.8427223  90.1334150  84.4148187  23.4590734
  90.9965611  84.0584992  23.6694059  89.5599561  84.0762082  24.1466139
  63.9116999  22.8406775   6.8846172  63.9005640  22.4459573   6.0126676
  64.0737639  22.1072848   7.4779944  60.6324261  25.6243887   5.8325356
  60.3414127  26.5289518   5.7172022  61.2681245  25.6660415   6.5469426
  65.5914146  25.3105303   2.8275150  65.2914869  26.2130341   2.7190957
  65.2465205  25.0437486   3.6796303  63.0652155  19.2477488   8.4507484
  62.2885489  19.8071408   8.4410349  63.7042718  19.7334271   8.9722355
  61.3198528  22.0562942   8.0125451  62.0613212  22.5947986   7.7360275
  60.6135513  22.6829230   8.1697003  66.7953867  24.1992082   6.6097613
  67.2037223  23.7574493   5.8652245  66.0731129  23.6244710   6.8631806
  63.1484937  19.1364689   3.9831170  63.9946132  19.5604102   4.1265819
  63.0883575  18.4798313   4.6769733  67.1182682  24.7593273   0.3649902
  66.4891544  24.9238987  -0.3374030  66.7308344  25.1734882   1.1360866
  66.2984383  16.7969057   5.6412343  66.0545314  17.5511118   5.1046619
  66.5744313  17.1754405   6.4759591  68.2522845  23.3407670   4.3189609
  68.4639741  23.9839430   3.6423990  68.2052594  22.5069986   3.8511539
  60.0559891  19.2102590   8.8140761  59.4258552  19.8918871   9.0476158
  59.9495979  19.0985671   7.8693900  69.3668673  26.2179625   2.4911966
  70.1886117  25.8159812   2.2094648  69.3631076  26.1147859   3.4428082
  63.1325277  25.7663668   4.6472677  63.1969709  26.2284076   5.4830849
  62.4236201  25.1361033   4.7754987  59.3340634  13.5123356  11.1766012
  58.9407580  12.9589554  11.8513657  60.1506774  13.8233934  11.5672530
  62.2508595  14.9281235   8.7686269  62.9918308  15.5288388   8.6890731
  62.4826518  14.1858873   8.2104312  57.3949933  20.1137602   7.0464499
  57.2803448  19.2122859   7.3471598  56.5394451  20.3601299   6.6949315
  64.4741771  28.0555342   8.6451999  64.0305625  27.2691721   8.3272904
  65.1358984  28.2434493   7.9795890  59.2328892  29.5851144   3.1712678
  59.7836317  29.4568207   2.3989672  58.3940368  29.8846033   2.8207571
  66.5723009  28.3358142   6.6733401  66.5541484  29.1567023   6.1813670
  67.4942929  28.2112218   6.8983542  63.0296063  25.8502272   7.5156909
  63.5624400  25.0890560   7.2856217  62.5010144  25.5575924   8.2581063
  69.3741622  23.1737285   0.1442767  68.7165296  23.8636546   0.2322896
  70.1782021  23.5633717   0.4876754  67.3941816  28.3464156  -2.7424330
  67.6864790  28.9069213  -3.4611965  67.9040436  28.6392717  -1.9871171
  65.8041075  19.5928574   5.2449752  66.1590463  19.8200047   6.1044218
  66.4513206  19.9246951   4.6227007  71.5608191  24.7823537   0.9610353
  71.9944698  24.6898826   1.8093407  72.2739772  24.7581038   0.3230369
  65.2936086  28.3825631   2.4943453  65.3473109  28.9516568   3.2621169
  64.4250868  28.5527516   2.1297490  72.4223741  24.8247238   3.4943238
  72.6159631  25.7293048   3.7402513  72.3224359  24.3654657   4.3281823
  67.4838850  24.9753980   9.0684119  67.3324356  24.7464532   8.1514202
  67.4743529  25.9324582   9.0815464  64.2524186  22.5485893   4.0530385
  65.1816246  22.6997053   3.8799352  63.8315216  22.6369914   3.1979032
  63.0512518  26.5736558   1.8228923  62.9123604  26.2055342   2.6954861
  62.2627114  27.0884197   1.6512881  58.5761977  21.3585790   4.7370342
  58.4381775  20.6266029   5.3381881  59.4866900  21.2694690   4.4554529
  61.2044278  21.0705750   4.2254021  61.9143896  20.4298942   4.1840640
  61.1613586  21.3218645   5.1480202  69.1931056  28.0073103   7.1460601
  69.1343603  27.3232323   6.4791184  69.5950575  28.7492093   6.6941227
  58.2121755  34.8235017  -0.0605681  58.4518353  35.4553541   0.6173338
  57.3690952  34.4723057   0.2259679  69.1948464  25.9712687   5.3774580
  68.3075242  25.6338609   5.5000979  69.7647015  25.2395718   5.6143346
  62.7249617  30.6314139   2.3435823  62.6519788  31.4369111   2.8555128
  62.2827010  30.8306105   1.5183845  65.1848301  30.5300973   4.4993982
  65.8976273  31.1648438   4.4269884  64.6938329  30.6264839   3.6833984
  60.2360214  28.2795417   5.3199553  60.9369674  28.9131900   5.4728947
  59.7655329  28.6210148   4.5595192  68.0361500  20.8340024   3.1452103
  67.3832950  21.0815932   2.4904556  68.4141880  20.0204162   2.8114581
  64.9968674  30.8699717  -2.7519726  65.1791068  30.0521373  -2.2891974
  65.8201660  31.0867410  -3.1894836  64.0849073  21.5759835   9.6318140
  63.4089710  21.4753965  10.3020516  64.9076707  21.4199049  10.0954138
  55.8327932  27.8131772   2.2530656  56.4181369  27.0675460   2.3858560
  55.6352771  28.1235729   3.1367320  62.8271856  32.8826763   3.8675756
  63.3790164  33.0458384   4.6324842  63.1678049  33.4731201   3.1955781
  57.2788622  17.3025045   8.1170675  57.9060660  16.9202122   8.7308200
  56.4216541  17.0839247   8.4826368  67.6782730  27.7088020   9.7224411
  68.2222634  28.3217979   9.2279366  67.0969575  28.2667599  10.2391424
  65.9640243  30.8308738   0.8539439  65.8391383  30.0298478   0.3450384
  66.6219334  31.3254932   0.3653409  68.0275152  28.6317758   2.4818989
  67.0805487  28.5123110   2.4097315  68.3757925  27.7440256   2.5645250
  65.0321585  28.4270475  -1.3176659  64.8846547  27.4987182  -1.1369089
  65.8575078  28.4490565  -1.8019584  68.6355707  29.2499033  -0.2311786
  69.5602254  29.0441895  -0.3687335  68.4671010  29.0015435   0.6777555
  62.9737667  30.4485244   5.8824411  63.2824794  30.2034391   6.7547110
  63.7713149  30.6531883   5.3943281  62.9958279  32.6023154  -1.8870213
  62.5563270  32.1099533  -1.1937356  63.7466396  32.0596122  -2.1278137
  60.5156679  16.6242951   9.7784595  60.5644834  17.5005074   9.3962365
  61.0579193  16.0820344   9.2056238  71.0011525  27.1684074   9.0585732
  70.2107068  27.1508213   8.5190231  70.7644879  27.7072368   9.8134769
  71.1209400  24.0176541   6.3718461  71.1707405  23.8526548   7.3133983
  71.0123323  23.1503800   5.9816341  68.4113162  20.0007469   7.6877767
  69.3123025  19.8613934   7.3961765  68.4861137  20.1661924   8.6275945
  62.7455967  17.3774324   6.5330954  61.8759277  17.6707890   6.2613542
  62.9815448  17.9614769   7.2538217  72.6227596  26.4373482   6.6160482
  72.3312405  26.8003463   7.4523943  72.0099728  25.7240491   6.4373814
  70.8714785  21.5606097   5.0840540  71.3468906  21.7533743   4.2759392
  69.9480350  21.6165283   4.8383924  69.5716454  18.4371857   3.3168846
  70.5233877  18.5369955   3.3381070  69.4019904  17.6450126   3.8266930
  72.0504532  21.6577977   2.4311145  72.0180852  20.7193977   2.6170829
  72.6605155  21.7362013   1.6976970  63.7726555  24.5791776   9.9339006
  64.6929564  24.7570375  10.1279053  63.7376138  23.6347821   9.7818706
  61.6416493  18.0626016  11.9664537  61.5413220  19.0120373  11.8976628
  61.4238035  17.7344255  11.0940607  61.5047763  21.4923155  10.7829598
  61.0214845  22.2923515  10.9893487  61.5908702  21.5031100   9.8297042
  57.4321100  25.3827690   2.8198032  58.3864354  25.3511632   2.7527964
  57.2333624  24.9218313   3.6348258  58.0220482  23.9528806   5.3868830
  58.8413371  24.4472884   5.4103667  58.2957290  23.0360774   5.3586397
  58.9440455  31.8216626   0.0486672  58.8272839  32.7662059  -0.0534637
  58.1232901  31.5190188   0.4372472  65.8008789  25.3547787  11.5853167
  66.6699949  25.5288439  11.2239802  65.3215540  26.1742204  11.4628897
  59.9694969  32.4744888   3.2642601  60.8722216  32.5068498   3.5809096
  59.7432339  31.5445339   3.2788937  61.7248571  31.2275875  -0.0747320
  60.7744202  31.2277736  -0.1882948  62.0281057  30.4808609  -0.5911286
  57.6152888  15.4334557  10.1836041  58.4784349  15.0771362  10.3939365
  57.0418298  15.0948452  10.8711445  77.4601265  37.0636413   0.9898442
  78.0979675  36.9443160   0.2861782  77.3422108  38.0117257   1.0486394
  74.2690971  37.0163841   0.9259967  73.9309482  36.9004906   0.0380501
  75.1380739  36.6155006   0.9060973  70.1277787  38.8699318  -3.0843142
  69.5642652  38.7789255  -3.8526855  70.0130182  38.0499222  -2.6040650
  74.7510754  38.1698693   6.8846172  74.7399395  37.7751491   6.0126676
  74.9131393  37.4364766   7.4779944  67.6742219  40.3650509  -0.2458922
  68.4663510  40.0241334  -0.6612623  67.9138869  40.4745484   0.6743231
  69.6332972  39.6259422  -7.3741543  70.4063848  39.0788410  -7.5128667
  69.9858371  40.4903672  -7.1627082  71.4718015  40.9535805   5.8325356
  71.1807881  41.8581436   5.7172022  72.1074999  40.9952332   6.5469426
  72.3974222  38.3312653   2.4226716  72.9937794  38.1068676   1.7083679
  72.4549193  37.5897399   3.0252164  74.0327080  37.1490342  -3.8352029
  73.6685287  36.6220963  -3.1239108  74.8894196  36.7588811  -4.0085544
  76.4307900  40.6397220   2.8275150  76.1308623  41.5422259   2.7190957
  76.0858960  40.3729403   3.6796303  69.8820382  37.0911017  -1.1388146
  68.9570878  36.9587231  -0.9310454  70.1304795  37.8705236  -0.6418203
  67.2429193  36.7344291  -0.3044357  67.3721574  36.9878770   0.6095055
  66.5626644  37.3271999  -0.6239702  71.4128680  47.4041541  -4.2053883
  71.3352710  48.3549366  -4.1265402  70.8090324  47.0587413  -3.5478956
  73.9045910  34.5769406   8.4507484  73.1279244  35.1363326   8.4410349
  74.5436473  35.0626189   8.9722355  72.1592282  37.3854859   8.0125451
  72.9006966  37.9239903   7.7360275  71.4529267  38.0121148   8.1697003
  77.6347622  39.5284000   6.6097613  78.0430978  39.0866410   5.8652245
  76.9124883  38.9536627   6.8631806  73.9878692  34.4656607   3.9831170
  74.8339887  34.8896020   4.1265819  73.9277329  33.8090231   4.6769733
  77.9576436  40.0885190   0.3649902  77.3285299  40.2530905  -0.3374030
  77.5702098  40.5026800   1.1360866  77.1378137  32.1260975   5.6412343
  76.8939069  32.8803035   5.1046619  77.4138068  32.5046323   6.4759591
  79.0916600  38.6699587   4.3189609  79.3033495  39.3131347   3.6423990
  79.0446348  37.8361904   3.8511539  76.6942829  31.2817408   1.2226181
  75.8327308  31.5798662   1.5142919  76.7205263  31.4987807   0.2907214
  73.5104398  39.8259599  -2.3700013  73.9742744  40.1047302  -3.1595391
  73.2461196  38.9243043  -2.5526922  70.4028479  39.3731080   0.5679750
  70.9729836  39.8018348  -0.0702765  70.9936591  39.0913665   1.2663936
  72.4473284  35.9482751  -5.5610448  73.1497328  36.4003795  -5.0936522
  72.1153913  35.3066570  -4.9330555  70.8953646  34.5394508   8.8140761
  70.2652306  35.2210788   9.0476158  70.7889734  34.4277589   7.8693900
  66.1898618  34.2066304  -0.2593314  65.3997672  34.4623832  -0.7353204
  66.6809866  35.0214641  -0.1541274  80.2062428  41.5471543   2.4911966
  81.0279871  41.1451730   2.2094648  80.2024831  41.4439777   3.4428082
  68.1413364  34.5710883  -3.3009838  67.3444527  34.6829577  -2.7826342
  67.9138956  34.9097535  -4.1668947  73.9719031  41.0955586   4.6472677
  74.0363464  41.5575993   5.4830849  73.2629955  40.4652951   4.7754987
  64.4736321  34.4596794   2.1721676  64.7244360  35.3443804   2.4379252
  65.0095870  34.2801396   1.3996768  73.6867049  42.7623694  -5.4848343
  73.5512724  43.6075229  -5.0563495  74.2276861  42.9642971  -6.2482409
  70.1734388  28.8415273  11.1766012  69.7801334  28.2881472  11.8513657
  70.9900529  29.1525852  11.5672530  67.1396446  40.2799132  -4.9120418
  67.6520967  41.0742382  -4.7614853  67.7919159  39.5825422  -4.9786816
  68.9491331  43.3964888  -2.8297665  69.1257959  44.3182853  -3.0176681
  69.7448164  43.0823307  -2.4003285  73.0902349  30.2573152   8.7686269
  73.8312063  30.8580306   8.6890731  73.3220272  29.5150790   8.2104312
  68.2343687  35.4429520   7.0464499  68.1197203  34.5414777   7.3471598
  67.3788205  35.6893216   6.6949315  75.3135525  43.3847260   8.6451999
  74.8699379  42.5983639   8.3272904  75.9752739  43.5726411   7.9795890
  70.0722646  44.9143062   3.1712678  70.6230072  44.7860125   2.3989672
  69.2334122  45.2137951   2.8207571  77.4116763  43.6650060   6.6733401
  77.3935239  44.4858941   6.1813670  78.3336683  43.5404135   6.8983542
  73.8689817  41.1794189   7.5156909  74.4018154  40.4182478   7.2856217
  73.3403899  40.8867841   8.2581063  65.1045363  38.6087786  -4.1360847
  65.9420585  39.0184794  -4.3527139  65.2823631  37.6687228  -4.1660653
  76.1156053  28.6558911   1.0099784  75.6120848  28.6189046   0.1967589
  76.4086660  29.5651653   1.0696441  72.3598939  28.7397640   0.0165966
  73.2251935  28.5440449  -0.3428145  72.4276448  28.5107992   0.9435322
  75.2342530  40.3080182  -4.9724279  74.7063892  39.5732942  -5.2851042
  74.7330033  41.0854858  -5.2184311  80.2135376  38.5029202   0.1442767
  79.5559051  39.1928464   0.2322896  81.0175775  38.8925634   0.4876754
  69.9661258  30.9699848  -2.6117668  70.5405010  30.7475030  -3.3444475
  70.5532240  31.0388543  -1.8589066  75.5021666  34.3323031   0.4405050
  74.5844227  34.5537978   0.2826738  75.9181809  34.4069341  -0.4183243
  79.7902631  41.8379577  -3.6774148  79.3364958  40.9970486  -3.6208958
  79.1596598  42.4740975  -3.3399368  78.2335570  43.6756073  -2.7424330
  78.5258545  44.2361130  -3.4611965  78.7434191  43.9684634  -1.9871171
  65.1271534  35.9478501  -3.4650114  64.9295934  35.3547862  -4.1899047
  64.5718198  35.6430711  -2.7474175  73.1068258  35.8401608  -1.3455521
  73.1616868  34.8875444  -1.4213044  72.2959460  35.9961047  -0.8614222
  71.0460618  34.4578667  -3.5865142  70.2328483  34.7572838  -3.1799950
  71.5419612  34.0634356  -2.8690659  73.1969196  44.4536424  -1.6530877
  73.1545374  44.6797271  -2.5822345  74.1131894  44.2199799  -1.5045076
  76.6434829  34.9220492   5.2449752  76.9984217  35.1491965   6.1044218
  77.2906961  35.2538869   4.6227007  70.5374692  32.0297023   2.0296093
  71.1774072  31.8885782   1.3319057  69.7052223  31.7431536   1.6534695
  82.4001946  40.1115455   0.9610353  82.8338453  40.0190744   1.8093407
  83.1133527  40.0872955   0.3230369  71.3134996  41.3299453  -1.8568914
  72.1075595  40.8349773  -2.0586339  70.6026689  40.8017316  -2.2201209
  76.1329841  43.7117549   2.4943453  76.1866863  44.2808485   3.2621169
  75.2644622  43.8819434   2.1297490  67.6217760  35.4742535  -5.7809162
  66.6915348  35.4126991  -5.5639199  67.7175232  34.9518488  -6.5772520
  67.5403309  31.9997348  -3.1930920  67.8010126  32.9142681  -3.3021759
  68.3620481  31.5321790  -3.0434307  69.0128234  33.4135105   3.9767905
  69.6851288  33.2052467   3.3280553  68.1858021  33.2157191   3.5373137
  83.2617496  40.1539155   3.4943238  83.4553386  41.0584966   3.7402513
  83.1618114  39.6946574   4.3281823  74.9153806  30.0397046   5.9933565
  74.2681721  30.7386996   5.8998042  75.6854822  30.4733190   6.3609814
  78.3232604  40.3045898   9.0684119  78.1718111  40.0756450   8.1514202
  78.3137284  41.2616500   9.0815464  75.0917941  37.8777811   4.0530385
  76.0210001  38.0288971   3.8799352  74.6708971  37.9661832   3.1979032
  73.8906272  41.9028475   1.8228923  73.7517358  41.5347260   2.6954861
  73.1020869  42.4176115   1.6512881  75.4411488  41.2810078  -0.7882239
  75.1061320  41.2410848   0.1075410  74.9415433  40.6154794  -1.2611829
  69.4155731  36.6877708   4.7370342  69.2775529  35.9557947   5.3381881
  70.3260655  36.5986608   4.4554529  72.0438032  36.3997667   4.2254021
  72.7537651  35.7590860   4.1840640  72.0007340  36.6510562   5.1480202
  80.0324811  43.3365021   7.1460601  79.9737357  42.6524241   6.4791184
  80.4344329  44.0784011   6.6941227  70.7566966  33.3862885   6.0449661
  70.2204323  32.9353624   6.6971257  70.1683675  33.5208794   5.3020125
  69.0515510  50.1526935  -0.0605681  69.2912108  50.7845459   0.6173338
  68.2084706  49.8014975   0.2259679  80.0342218  41.3004605   5.3774580
  79.1468997  40.9630526   5.5000979  80.6040769  40.5687636   5.6143346
  61.6871365  37.6328696  -1.2982368  62.3742405  37.3190426  -1.8861353
  61.5319494  38.5370061  -1.5715117  66.4906087  32.5218893   3.1302655
  66.4064276  31.9144563   2.3953065  65.6688794  33.0127911   3.1312152
  73.5643372  45.9606057   2.3435823  73.4913543  46.7661029   2.8555128
  73.1220765  46.1598023   1.5183845  73.3533151  45.1977827  -4.1461355
  72.5700673  45.7399507  -4.0523130  74.0525896  45.7151807  -3.7467114
  76.0242055  45.8592891   4.4993982  76.7370027  46.4940356   4.4269884
  75.5332084  45.9556757   3.6833984  73.2464770  33.1489839  -1.7755465
  72.8762558  32.5960880  -1.0874559  73.7423862  32.5447973  -2.3280465
  71.0753969  43.6087335   5.3199553  71.7763428  44.2423817   5.4728947
  70.6049084  43.9502066   4.5595192  78.8755255  36.1631942   3.1452103
  78.2226705  36.4107849   2.4904556  79.2535634  35.3496080   2.8114581
  75.8362428  46.1991635  -2.7519726  76.0184823  45.3813291  -2.2891974
  76.6595414  46.4159327  -3.1894836  74.9242828  36.9051753   9.6318140
  74.2483465  36.8045882  10.3020516  75.7470461  36.7490967  10.0954138
  66.6721687  43.1423690   2.2530656  67.2575123  42.3967377   2.3858560
  66.4746525  43.4527646   3.1367320  69.5260342  46.1774937  -2.7306902
  68.8570717  46.6621065  -3.2142862  69.3873212  46.4244157  -1.8163523
  61.2639341  35.7129290   0.9735099  61.3023441  35.1792880   1.7672217
  60.7579634  35.1864495   0.3546076  73.6665610  48.2118680   3.8675756
  74.2183918  48.3750302   4.6324842  74.0071804  48.8023118   3.1955781
  68.6430104  30.5593830   4.4697641  68.7071430  31.4208661   4.0575039
  68.5797224  29.9467832   3.7370000  68.1182376  32.6316963   8.1170675
  68.7454415  32.2494040   8.7308200  67.2610295  32.4131165   8.4826368
  78.5176485  43.0379938   9.7224411  79.0616389  43.6509896   9.2279366
  77.9363330  43.5959516  10.2391424  76.8033998  46.1600656   0.8539439
  76.6785137  45.3590396   0.3450384  77.4613089  46.6546849   0.3653409
  68.4242166  32.5149388   0.0316579  67.7028752  33.1285356  -0.1075948
  69.2135422  33.0507153  -0.0466775  78.8668906  43.9609676   2.4818989
  77.9199242  43.8415027   2.4097315  79.2151679  43.0732174   2.5645250
  71.2268479  29.8503815   6.3057231  71.7502881  30.0966112   7.0683540
  71.0080813  30.6823850   5.8860368  75.8715339  43.7562392  -1.3176659
  75.7240302  42.8279100  -1.1369089  76.6968833  43.7782483  -1.8019584
  69.7377584  32.4080459  -5.4596167  70.0773656  32.9366381  -6.1817559
  70.1849704  32.7460865  -4.6837600  79.4749461  44.5790951  -0.2311786
  80.3996009  44.3733812  -0.3687335  79.3064765  44.3307352   0.6777555
  72.4321025  30.7917510   3.9906901  72.0917845  29.9925323   4.3927581
  71.7260031  31.0919221   3.4183734  73.0837496  27.8766823   2.4434224
  73.9063566  27.4027301   2.3213114  73.3275560  28.6557306   2.9432910
  70.6076075  34.5685943   0.2526203  70.4620656  34.8826246   1.1450484
  70.1301279  35.1870843  -0.3002899  72.4672458  31.5588491   0.3007092
  72.4534027  30.6629584  -0.0360610  73.1844886  31.5659155   0.9345378
  74.3198589  31.9925831   2.3460220  74.0616367  32.9142902   2.3444550
  73.7883629  31.5956266   3.0360684  65.0821737  37.1091288   3.1913864
  64.5375205  37.8851096   3.3234138  65.9601087  37.4562092   3.0332985
  65.8687759  36.2361184   6.0844021  65.1269495  36.3843819   6.6708651
  65.5480503  36.4969449   5.2210770  73.8131422  45.7777162   5.8824411
  74.1218548  45.5326309   6.7547110  74.6106904  45.9823801   5.3943281
  73.8352034  47.9315072  -1.8870213  73.3957024  47.4391450  -1.1937356
  74.5860151  47.3888039  -2.1278137  66.3144373  44.1226613  -1.8845585
  67.1402393  43.8230384  -2.2646941  65.9638425  43.3534235  -1.4355796
  71.2825906  43.4753081   0.1852089  70.6605915  42.8123786  -0.1145683
  71.9530773  43.5014213  -0.4974263  64.5152978  42.0412939  -0.9256651
  63.6784886  41.6135113  -1.1072650  64.4876623  42.2345382   0.0114140
  71.3550433  31.9534869   9.7784595  71.4038589  32.8296992   9.3962365
  71.8972948  31.4112262   9.2056238  81.8405279  42.4975992   9.0585732
  81.0500823  42.4800131   8.5190231  81.6038634  43.0364286   9.8134769
  81.9603154  39.3468458   6.3718461  82.0101159  39.1818466   7.3133983
  81.8517078  38.4795717   5.9816341  70.8439413  42.0257004  -6.3389450
  70.9927533  42.7092468  -6.9922778  71.6505856  42.0062094  -5.8239995
  79.2506917  35.3299386   7.6877767  80.1516779  35.1905851   7.3961765
  79.3254891  35.4953841   8.6275945  73.5849722  32.7066241   6.5330954
  72.7153031  32.9999807   6.2613542  73.8209202  33.2906686   7.2538217
  83.4621351  41.7665400   6.6160482  83.1706159  42.1295380   7.4523943
  82.8493482  41.0532408   6.4373814  81.7108539  36.8898015   5.0840540
  82.1862661  37.0825661   4.2759392  80.7874105  36.9457200   4.8383924
  68.5992046  38.0522182  -5.3328382  68.3538088  37.1484512  -5.1348171
  68.7687960  38.0539332  -6.2748904  76.2888756  28.9245858   4.0496374
  76.8070700  29.6606885   3.7242863  75.9343888  29.2309851   4.8843133
  80.4110208  33.7663775   3.3168846  81.3627631  33.8661872   3.3381070
  80.2413659  32.9742043   3.8266930  78.4324588  30.8519358   3.5028247
  77.8374520  31.1324371   2.8074735  78.1474284  31.3413259   4.2744988
  82.8898286  36.9869894   2.4311145  82.8574606  36.0485895   2.6170829
  83.4998910  37.0653931   1.6976970  74.6120309  39.9083693   9.9339006
  75.5323319  40.0862292  10.1279053  74.5769892  38.9639739   9.7818706
  63.8302474  35.1022287  -1.1407719  63.5105259  34.2487595  -1.4333345
  63.2835903  35.3170865  -0.3849752  67.6082382  37.8184728   2.5761788
  67.8268392  38.7501836   2.5949821  68.0208156  37.4592703   3.3616591
  72.4810247  33.3917934  11.9664537  72.3806974  34.3412291  11.8976628
  72.2631789  33.0636173  11.0940607  63.6990734  38.7225199   0.8285403
  63.0054206  38.3079151   0.3155357  64.4463725  38.7645735   0.2318822
  72.3441517  36.8215073  10.7829598  71.8608599  37.6215433  10.9893487
  72.4302456  36.8323018   9.8297042  65.6127477  38.6543452  -1.2948582
  65.5898165  38.7531140  -2.2466699  65.9228113  39.5008603  -0.9731416
  68.2714855  40.7119607   2.8198032  69.2258108  40.6803550   2.7527964
  68.0727378  40.2510231   3.6348258  68.8614237  39.2820723   5.3868830
  69.6807126  39.7764802   5.4103667  69.1351045  38.3652692   5.3586397
  66.6265084  46.2539227  -0.1631770  66.4919552  45.4939628  -0.7293772
  66.2097146  46.9780127  -0.6302981  69.7834209  47.1508544   0.0486672
  69.6666594  48.0953976  -0.0534637  68.9626656  46.8482105   0.4372472
  64.1149151  33.6158857   6.0861027  64.7608015  33.1057811   6.5748252
  63.9066302  34.3527539   6.6604452  76.6402543  40.6839705  11.5853167
  77.5093703  40.8580357  11.2239802  76.1609295  41.5034122  11.4628897
  70.8088724  47.8036806   3.2642601  71.7115970  47.8360416   3.5809096
  70.5826094  46.8737257   3.2788937  72.5642326  46.5567792  -0.0747320
  71.6137957  46.5569654  -0.1882948  72.8674812  45.8100527  -0.5911286
  68.4546642  30.7626474  10.1836041  69.3178104  30.4063279  10.3939365
  67.8812053  30.4240369  10.8711445  85.5904508  53.4990611   6.8846172
  85.5793149  53.1043409   6.0126676  85.7525148  52.7656683   7.4779944
  82.3111770  56.2827722   5.8325356  82.0201636  57.1873353   5.7172022
  82.9468754  56.3244250   6.5469426  78.0822947  52.0636208  -0.3044357
  78.2115328  52.3170687   0.6095055  77.4020398  52.6563916  -0.6239702
  84.7439664  49.9061324   8.4507484  83.9672998  50.4655244   8.4410349
  85.3830227  50.3918107   8.9722355  82.9986036  52.7146777   8.0125451
  83.7400721  53.2531821   7.7360275  82.2923022  53.3413066   8.1697003
  88.4741376  54.8575917   6.6097613  88.8824732  54.4158328   5.8652245
  87.7518638  54.2828545   6.8631806  84.8272446  49.7948524   3.9831170
  85.6733641  50.2187938   4.1265819  84.7671084  49.1382149   4.6769733
  87.9771892  47.4552893   5.6412343  87.7332823  48.2094953   5.1046619
  88.2531822  47.8338240   6.4759591  87.5336583  46.6109326   1.2226181
  86.6721062  46.9090579   1.5142919  87.5599018  46.8279725   0.2907214
  81.7347400  49.8686425   8.8140761  81.1046061  50.5502706   9.0476158
  81.6283488  49.7569507   7.8693900  77.0292373  49.5358221  -0.2593314
  76.2391427  49.7915750  -0.7353204  77.5203620  50.3506559  -0.1541274
  84.8112786  56.4247504   4.6472677  84.8757218  56.8867911   5.4830849
  84.1023710  55.7944869   4.7754987  75.3130076  49.7888712   2.1721676
  75.5638114  50.6735722   2.4379252  75.8489624  49.6093313   1.3996768
  81.0128143  44.1707191  11.1766012  80.6195089  43.6173390  11.8513657
  81.8294283  44.4817770  11.5672530  83.9296104  45.5865070   8.7686269
  84.6705817  46.1872223   8.6890731  84.1614027  44.8442708   8.2104312
  79.0737442  50.7721437   7.0464499  78.9590957  49.8706695   7.3471598
  78.2181960  51.0185134   6.6949315  86.1529280  58.7139178   8.6451999
  85.7093134  57.9275556   8.3272904  86.8146493  58.9018328   7.9795890
  84.7083572  56.5086107   7.5156909  85.2411909  55.7474395   7.2856217
  84.1797653  56.2159759   8.2581063  86.9549807  43.9850828   1.0099784
  86.4514603  43.9480963   0.1967589  87.2480414  44.8943571   1.0696441
  83.1992693  44.0689558   0.0165966  84.0645690  43.8732367  -0.3428145
  83.2670202  43.8399910   0.9435322  87.4828584  50.2512410   5.2449752
  87.8377972  50.4783883   6.1044218  88.1300715  50.5830786   4.6227007
  81.3768447  47.3588941   2.0296093  82.0167826  47.2177700   1.3319057
  80.5445978  47.0723454   1.6534695  79.8521989  48.7427023   3.9767905
  80.5245042  48.5344385   3.3280553  79.0251775  48.5449109   3.5373137
  85.7547561  45.3688964   5.9933565  85.1075476  46.0678913   5.8998042
  86.5248576  45.8025108   6.3609814  89.1626359  55.6337816   9.0684119
  89.0111865  55.4048368   8.1514202  89.1531038  56.5908417   9.0815464
  85.9311695  53.2069729   4.0530385  86.8603755  53.3580888   3.8799352
  85.5102725  53.2953749   3.1979032  80.2549486  52.0169626   4.7370342
  80.1169284  51.2849865   5.3381881  81.1654409  51.9278526   4.4554529
  82.8831787  51.7289585   4.2254021  83.5931405  51.0882777   4.1840640
  82.8401095  51.9802480   5.1480202  81.5960721  48.7154803   6.0449661
  81.0598078  48.2645541   6.6971257  81.0077429  48.8500712   5.3020125
  72.5265120  52.9620614  -1.2982368  73.2136160  52.6482344  -1.8861353
  72.3713248  53.8661979  -1.5715117  77.3299842  47.8510811   3.1302655
  77.2458031  47.2436480   2.3953065  76.5082548  48.3419829   3.1312152
  81.9147723  58.9379252   5.3199553  82.6157183  59.5715735   5.4728947
  81.4442838  59.2793984   4.5595192  85.7636582  52.2343671   9.6318140
  85.0877219  52.1337800  10.3020516  86.5864216  52.0782884  10.0954138
  72.1033096  51.0421207   0.9735099  72.1417195  50.5084798   1.7672217
  71.5973389  50.5156413   0.3546076  79.4823858  45.8885748   4.4697641
  79.5465185  46.7500579   4.0575039  79.4190978  45.2759750   3.7370000
  78.9576131  47.9608880   8.1170675  79.5848169  47.5785958   8.7308200
  78.1004050  47.7423082   8.4826368  89.3570239  58.3671856   9.7224411
  89.9010143  58.9801814   9.2279366  88.7757084  58.9251434  10.2391424
  79.2635920  47.8441306   0.0316579  78.5422506  48.4577274  -0.1075948
  80.0529176  48.3799071  -0.0466775  82.0662234  45.1795733   6.3057231
  82.5896636  45.4258029   7.0683540  81.8474567  46.0115767   5.8860368
  83.2714779  46.1209428   3.9906901  82.9311599  45.3217241   4.3927581
  82.5653785  46.4211139   3.4183734  83.9231251  43.2058740   2.4434224
  84.7457320  42.7319218   2.3213114  84.1669314  43.9849224   2.9432910
  81.4469830  49.8977861   0.2526203  81.3014410  50.2118164   1.1450484
  80.9695033  50.5162761  -0.3002899  83.3066212  46.8880409   0.3007092
  83.2927781  45.9921502  -0.0360610  84.0238641  46.8951073   0.9345378
  85.1592343  47.3217749   2.3460220  84.9010121  48.2434820   2.3444550
  84.6277384  46.9248184   3.0360684  75.9215492  52.4383205   3.1913864
  75.3768960  53.2143013   3.3234138  76.7994842  52.7854010   3.0332985
  76.7081514  51.5653101   6.0844021  75.9663250  51.7135737   6.6708651
  76.3874258  51.8261367   5.2210770  82.1944188  47.2826786   9.7784595
  82.2432343  48.1588909   9.3962365  82.7366702  46.7404180   9.2056238
  92.6799034  57.8267910   9.0585732  91.8894577  57.8092049   8.5190231
  92.4432388  58.3656203   9.8134769  92.7996909  54.6760376   6.3718461
  92.8494914  54.5110384   7.3133983  92.6910832  53.8087635   5.9816341
  90.0900671  50.6591304   7.6877767  90.9910534  50.5197769   7.3961765
  90.1648646  50.8245759   8.6275945  84.4243476  48.0358159   6.5330954
  83.5546786  48.3291725   6.2613542  84.6602957  48.6198604   7.2538217
  87.1282510  44.2537776   4.0496374  87.6464454  44.9898803   3.7242863
  86.7737643  44.5601769   4.8843133  91.2503963  49.0955692   3.3168846
  92.2021386  49.1953790   3.3381070  91.0807413  48.3033961   3.8266930
  89.2718342  46.1811276   3.5028247  88.6768274  46.4616288   2.8074735
  88.9868039  46.6705176   4.2744988  85.4514064  55.2375611   9.9339006
  86.3717073  55.4154210  10.1279053  85.4163647  54.2931656   9.7818706
  74.6696229  50.4314205  -1.1407719  74.3499013  49.5779513  -1.4333345
  74.1229657  50.6462783  -0.3849752  78.4476136  53.1476646   2.5761788
  78.6662146  54.0793754   2.5949821  78.8601910  52.7884620   3.3616591
  83.3204002  48.7209852  11.9664537  83.2200729  49.6704208  11.8976628
  83.1025544  48.3928090  11.0940607  74.5384489  54.0517116   0.8285403
  73.8447960  53.6371069   0.3155357  75.2857480  54.0937653   0.2318822
  83.1835272  52.1506990  10.7829598  82.7002354  52.9507350  10.9893487
  83.2696211  52.1614935   9.8297042  79.1108609  56.0411525   2.8198032
  80.0651863  56.0095467   2.7527964  78.9121133  55.5802149   3.6348258
  79.7007991  54.6112641   5.3868830  80.5200880  55.1056720   5.4103667
  79.9744799  53.6944609   5.3586397  74.9542906  48.9450775   6.0861027
  75.6001769  48.4349729   6.5748252  74.7460057  49.6819457   6.6604452
  87.4796298  56.0131622  11.5853167  88.3487458  56.1872275  11.2239802
  87.0003049  56.8326039  11.4628897  79.2940397  46.0918392  10.1836041
  80.1571858  45.7355197  10.3939365  78.7205807  45.7532287  10.8711445
  91.8521897  59.4999109  11.1766012  91.4588843  58.9465307  11.8513657
  92.6688038  59.8109687  11.5672530  90.1334151  61.4210310  10.1836041
  90.9965613  61.0647115  10.3939365  89.5599562  61.0824205  10.8711445
   1.5818379  76.2140090  65.2170402   0.8282087  75.6447488  65.0614406
   1.7165920  76.1802754  66.1641036   1.9924794  76.3715700  67.9490646
   2.7228182  76.1100988  68.5098349   1.3831739  75.6344422  67.9892714
   1.1386245  88.4409583  64.4425114   1.9249335  88.0229006  64.0915531
   1.4024950  89.3455675  64.6106762   6.5394673  88.3784816  65.3458092
   7.2719844  87.8084033  65.5795922   5.7834028  87.9906417  65.7864598
   4.0620093  82.0906391  69.8052701   3.7303418  82.9601802  69.5813916
   3.4665706  81.7742675  70.4846731   3.9548756  86.8101477  66.8846051
   3.0465634  86.7416885  66.5904812   3.9036352  87.2873422  67.7127876
   5.8210403  85.0117915  68.6623925   5.1784783  85.3050448  68.0163719
   5.3165331  84.8970835  69.4677121   3.4750566  88.7581088  59.3509784
   4.3868422  88.9908475  59.1757482   2.9660213  89.3418133  58.7884863
   1.2621849  85.7782691  72.0185807   1.0182781  86.5324752  71.4820083
   1.5381780  86.1568039  72.8533054  12.4212133  91.5432008  65.2170402
  11.6675841  90.9739406  65.0614406  12.5559674  91.5094672  66.1641036
   1.1603225  79.9375972  69.4224014   0.8167494  80.8277613  69.3463125
   1.5282187  79.7477629  68.5593599   2.8579263  86.4193279  63.9299983
   2.1202020  85.9070665  64.2610225   3.1106037  85.9793661  63.1183260
   2.9590890  79.1969531  64.5241752   3.2649767  78.3366894  64.2367667
   3.6843495  79.7887151  64.3240746   0.7678542  88.5742208  71.6223216
   1.1227929  88.8013681  72.4817682   1.4150673  88.9060585  71.0000471
   8.6403271  90.3634538  66.5164606   8.6293147  91.2459254  66.1458539
   7.7720650  90.0106089  66.3219143   5.2575846  89.2583179  62.9834772
   5.7236298  90.0911171  62.9095074   5.7083346  88.7928161  63.6880030
   3.2292508  81.6263766  67.0225673   2.3155588  81.8567993  67.1907880
   3.6585610  81.7102210  67.8739705   9.2427881  91.5134758  63.1214069
   9.6859027  90.7642083  62.7233192   8.3654391  91.5044894  62.7387801
   3.3750629  88.9821103  74.0651231   4.2760492  88.8427568  73.7735229
   3.4498603  89.1475558  75.0049408   5.8352252  90.5419731  71.4614004
   6.3106373  90.7347377  70.6532855   4.9117817  90.5978917  71.2157388
   0.6645062  78.9967857  65.9470734   0.9446816  78.3291046  66.5731161
   1.4495669  79.1896953  65.4345398   4.5353921  87.4185491  69.6942309
   5.4871343  87.5183589  69.7154534   4.3657371  86.6263760  70.2040394
   2.5568300  84.5041074  69.8801710   1.9618232  84.7846087  69.1848199
   2.2717997  84.9934975  70.6518451   7.0141998  90.6391611  68.8084609
   6.9818318  89.7007611  68.9944293   7.6242622  90.7175647  68.0750434
   7.1636487  87.4302654  68.8542892   6.6475535  86.6461111  68.6672821
   8.0476435  87.1021371  69.0189412   4.8247214  81.1743670  64.8138705
   4.6272035  80.8658758  65.6982037   5.4346919  81.9005309  64.9436635
  12.8318548  91.7007617  67.9490646  13.5621937  91.4392906  68.5098349
  12.2225494  90.9636339  67.9892714  10.9133845  89.8415480  68.5465097
  10.1867009  89.7071445  67.9381589  10.4981132  90.1492309  69.3521815
   3.9599667  83.1653102  62.0713901   3.3798336  83.8237906  61.6891953
   3.6935600  82.3430446  61.6601318   2.4103234  82.5658159  64.2735221
   2.9103012  82.6774694  63.4649540   3.0538842  82.2619212  64.9136029
   2.7424545  85.3253192  61.1270249   1.8550400  85.6102843  60.9090444
   3.1578535  85.1646955  60.2797526   6.0939082  85.3499713  64.8424588
   6.8699472  85.8396166  65.1149205   5.3687216  85.7757767  65.2996458
   8.5311640  86.0627332  65.8998529   9.1256131  85.8223068  65.1891837
   8.6038224  85.3434463  66.5272065   6.5270375  86.6297460  62.1670659
   6.2707309  86.2294096  62.9978866   5.9023243  87.3441254  62.0420798
  10.8382713  89.3693533  64.6741950  10.2782271  89.4386722  65.4473512
  10.2326216  89.1934518  63.9541446   1.5818380  53.2202212  51.9415708
   0.8282088  52.6509611  51.7859713   1.7165921  53.1864877  52.8886343
   1.9924795  53.3777822  54.6735953   2.7228183  53.1163111  55.2343656
   1.3831740  52.6406544  54.7138021   1.5844978  67.7220252  54.0917212
   2.2223388  67.6026999  53.3880552   1.4665821  68.6701096  54.1505164
   1.1386247  65.4471706  51.1670420   1.9249336  65.0291129  50.8160837
   1.4024951  66.3517798  51.3352069   1.3096324  70.8844556  45.8659077
   0.6742157  70.9579183  46.5779982   0.9793730  71.4738155  45.1878156
   6.5394674  65.3846939  52.0703399   7.2719846  64.8146156  52.3041228
   5.7834029  64.9968539  52.5109904   4.0620094  59.0968513  56.5298007
   3.7303419  59.9663924  56.3059222   3.4665708  58.7804797  57.2092038
   3.9548757  63.8163599  53.6091357   3.0465635  63.7479008  53.3150118
   3.9036353  64.2935544  54.4373183   5.8210404  62.0180038  55.3869231
   5.1784784  62.3112571  54.7409026   5.3165332  61.9032958  56.1922428
   3.4750568  65.7643211  46.0755091   4.3868424  65.9970598  45.9002788
   2.9660215  66.3480255  45.5130169   1.7591335  70.1867839  59.7116383
   2.1674691  69.7450249  58.9671016   1.0368597  69.6120466  59.9650576
   2.0820150  70.7469029  53.4668672   1.4529012  70.9114743  52.7644740
   1.6945812  71.1610639  54.2379636   5.9609382  71.6823467  50.8213036
   5.2760420  72.0622369  50.2710069   6.0453231  72.2918794  51.5544984
   1.2621851  62.7844814  58.7431114   1.0182782  63.5386874  58.2065390
   1.5381781  63.1630161  59.5778361   3.2160313  69.3283426  57.4208379
   3.4277209  69.9715186  56.7442760   3.1690062  68.4945743  56.9530309
   4.3306141  72.2055382  55.5930737   5.1523585  71.8035569  55.3113418
   4.3268544  72.1023616  56.5446853  12.4212134  68.5494130  51.9415708
  11.6675843  67.9801528  51.7859713  12.5559676  68.5156795  52.8886343
   1.5360477  74.3233899  59.7752171   1.5178952  75.1442780  59.2832440
   2.4580397  74.1987974  60.0002312   1.1603226  56.9438094  56.1469321
   0.8167495  57.8339736  56.0708432   1.5282189  56.7539752  55.2838906
   6.0987783  69.6879060  46.5894930   5.3217226  69.3490220  46.1450092
   6.7779264  69.6931683  45.9149895   4.3379090  69.1613041  53.2461538
   3.6802764  69.8512303  53.3341666   5.1419489  69.5509473  53.5895524
   3.1484549  67.5157414  51.2965479   3.6616430  68.1487406  51.7987189
   3.7985772  66.9158610  50.9308839   3.9146345  72.4963415  49.4244622
   3.4608672  71.6554325  49.4809812   3.2840311  73.1324814  49.7619402
   2.8579264  63.4255401  50.6545289   2.1202021  62.9132788  50.9855532
   3.1106038  62.9855783  49.8428566   2.3579284  74.3339912  50.3594440
   2.6502258  74.8944969  49.6406806   2.8677905  74.6268473  51.1147599
   2.9590892  56.2031653  51.2487059   3.2649768  55.3429017  50.9612974
   3.6843496  56.7949274  51.0486053   0.7678543  65.5804331  58.3468523
   1.1227931  65.8075804  59.2062988   1.4150674  65.9122708  57.7245778
   6.4976280  68.7022767  49.0517852   6.3594178  68.8924363  48.1239041
   6.1412499  69.4642149  49.5085903   6.5245659  70.7699294  54.0629123
   6.9582166  70.6774583  54.9112177   7.2377240  70.7456794  53.4249139
   7.3861209  70.8122994  56.5962008   7.5797099  71.7168805  56.8421283
   7.2861827  70.3530413  57.4300594   2.4476318  70.9629737  62.1702889
   2.2961824  70.7340289  61.2532973   2.4380997  71.9200338  62.1834234
   2.5014393  69.2849951  42.5873591   1.8843563  68.5596779  42.4906643
   2.0330881  70.0459312  42.2440665   4.1568524  73.9948860  60.2479371
   4.0981071  73.3108080  59.5809954   4.5588043  74.7367850  59.7959997
   4.1585932  71.9588444  58.4793351   3.2712710  71.6214365  58.6019750
   4.7284483  71.2271475  58.7162116   8.6403272  67.3696661  53.2409912
   8.6293148  68.2521376  52.8703845   7.7720652  67.0168212  53.0464449
   1.8703295  70.4227983  49.1730044   0.9359574  70.5429445  49.0034748
   2.0479964  69.5200449  48.9090054   5.2575847  66.2645302  49.7080078
   5.7236299  67.0973293  49.6340381   5.7083347  65.7990283  50.4125337
   3.3252078  72.6089123  46.7066230   3.6011922  72.4945718  47.6160104
   2.4556577  72.2106608  46.6678403   3.2292510  58.6325889  53.7470980
   2.3155589  58.8630116  53.9153187   3.6585611  58.7164333  54.5985012
   2.9998968  66.8215781  56.2470874   2.3470418  67.0691688  55.5923326
   3.3779348  66.0079919  55.9133351   2.6420198  73.6963777  62.8243181
   3.1860102  74.3093735  62.3298136   2.0607043  74.2543355  63.3410194
   0.9277711  76.8184495  53.9558209   0.8028851  76.0174235  53.4469154
   1.5856802  77.3130688  53.4672179   2.9912620  74.6193515  55.5837759
   2.0442955  74.4998866  55.5116086   3.3395393  73.7316013  55.6664020
   3.5993175  75.2374790  52.8706984   4.5239722  75.0317651  52.7331435
   3.4308478  74.9891191  53.7796325   3.3888491  75.7560457  48.2269075
   3.5625369  75.1906880  47.4742928   3.8817382  76.5561352  48.0448565
   9.2427882  68.5196880  49.8459375   9.6859028  67.7704206  49.4478498
   8.3654392  68.5107017  49.4633107   4.3763663  75.0727222  45.3265974
   5.0714568  75.6933914  45.5453288   4.7186814  74.2222573  45.6018352
   6.2755087  72.5226927  46.8553304   6.8006411  72.8614200  46.1302625
   6.1877439  71.5873943  46.6716439   5.9648993  73.1559831  62.1604502
   5.1744536  73.1383970  61.6209002   5.7282347  73.6948125  62.9153539
   6.0846868  70.0052297  59.4737231   6.1344873  69.8402305  60.4152754
   5.9760791  69.1379556  59.0835112   3.3750630  65.9883225  60.7896538
   4.2760493  65.8489690  60.4980535   3.4498605  66.1537680  61.7294715
   7.5865065  72.4249239  59.7179253   7.2949873  72.7879219  60.5542713
   6.9737196  71.7116247  59.5392585   8.7860747  69.9902119  52.2381823
   9.6207638  70.4291923  52.4019383   8.9219876  69.5140772  51.4190069
   5.8352253  67.5481853  58.1859311   6.3106374  67.7409500  57.3778162
   4.9117818  67.6041039  57.9402694   0.6645063  56.0029980  52.6716041
   0.9446817  55.3353169  53.2976468   1.4495670  56.1959075  52.1590705
   4.5353922  64.4247614  56.4187616   5.4871345  64.5245711  56.4399840
   4.3657372  63.6325882  56.9285700   2.5568301  61.5103197  56.6047017
   1.9618233  61.7908209  55.9093506   2.2717998  61.9997098  57.3763758
   1.6875792  75.4626124  45.3649650   2.6206465  75.3971685  45.5682525
   1.5999005  76.2982390  44.9064182   4.3163808  74.7791994  42.3253597
   4.2377440  74.4451858  43.2189355   5.1373475  75.2713762  42.3245069
   7.0142000  67.6453733  55.5329916   6.9818320  66.7069734  55.7189600
   7.6242623  67.7237770  54.7995741   7.1636488  64.4364777  55.5788199
   6.6475537  63.6523233  55.3918128   8.0476437  64.1083493  55.7434718
   4.8247215  58.1805792  51.5384012   4.6272036  57.8720880  52.4227344
   5.4346921  58.9067431  51.6681941  12.8318549  68.7069740  54.6735953
  13.5621938  68.4455028  55.2343656  12.2225495  67.9698462  54.7138021
  10.9133847  66.8477603  55.2710404  10.1867010  66.7133568  54.6626895
  10.4981133  67.1554431  56.0767122   3.9599669  60.1715224  48.7959207
   3.3798338  60.8300028  48.4137260   3.6935601  59.3492569  48.3846625
   2.4103235  59.5720282  50.9980528   2.9103013  59.6836817  50.1894846
   3.0538843  59.2681335  51.6381336   2.7424547  62.3315315  47.8515555
   1.8550402  62.6164965  47.6335750   3.1578536  62.1709078  47.0042832
   6.0939083  62.3561836  51.5669895   6.8699473  62.8458288  51.8394512
   5.3687217  62.7819890  52.0241764   8.5311641  63.0689455  52.6243835
   9.1256132  62.8285191  51.9137144   8.6038225  62.3496585  53.2517372
   1.8867760  72.0959989  41.9463575   2.5903610  72.3009992  42.5621231
   1.1630409  72.6636751  42.2112659   2.7165570  67.8469851  48.0665846
   2.6600772  68.3038402  47.2273478   3.2693913  67.0860535  47.8888688
   6.5270376  63.6359582  48.8915965   6.2707311  63.2356218  49.7224173
   5.9023244  64.3503376  48.7666104  10.8382714  66.3755656  51.3987257
  10.2782272  66.4448845  52.1718819  10.2326218  66.1996640  50.6786753
   3.7954458  72.5342519  43.9962036   4.6300061  72.1023717  43.8139510
   3.6338800  72.3624532  44.9238930   3.4500350  69.0374632  45.3618375
   3.3949154  68.8718903  44.4206819   2.8246405  69.7450665  45.5180565
  12.4238733  83.0512170  54.0917212  13.0617143  82.9318917  53.3880552
  12.3059576  83.9993014  54.1505164   9.2328439  83.0039598  54.0278737
   8.8946950  82.8880662  53.1399272  10.1018207  82.6030763  54.0079743
   5.0915255  84.8575074  50.0175628   4.5280120  84.7665011  49.2491916
   4.9767650  84.0374979  50.4978120   9.7148222  84.1574449  59.9864942
   9.7036863  83.7627248  59.1145446   9.8768861  83.4240522  60.5798714
   2.6379687  86.3526266  52.8559848   3.4300978  86.0117090  52.4406148
   2.8776337  86.4621241  53.7762002  10.6714813  88.5246042  45.3290093
  10.0202793  89.1100122  44.9424107  11.4659176  89.0552237  45.3885130
   4.5970440  85.6135179  45.7277227   5.3701316  85.0664166  45.5890103
   4.9495839  86.4779428  45.9391689   6.4355483  86.9411561  58.9344126
   6.1445349  87.8457192  58.8190793   7.0712467  86.9828089  59.6488196
   7.3611690  84.3188410  55.5245486   7.9575262  84.0944432  54.8102449
   7.4186661  83.5773155  56.1270934   6.9336718  81.7727845  43.3595677
   7.1862239  81.2509366  42.5979140   5.9961277  81.6093991  43.4622361
  11.9780001  80.7763623  51.1670420  12.7643090  80.3583047  50.8160837
  12.2418705  81.6809716  51.3352069  12.1490078  86.2136474  45.8659077
  11.5135911  86.2871100  46.5779982  11.8187485  86.8030073  45.1878156
  17.3788428  80.7138857  52.0703399  18.1113600  80.1438074  52.3041228
  16.6227784  80.3260457  52.5109904   6.6533007  83.6755951  45.5620052
   6.5369265  83.0000854  46.2301136   6.7635267  83.1888325  44.7452205
   8.9964548  83.1366098  49.2666741   8.6322755  82.6096719  49.9779663
   9.8531664  82.7464567  49.0933227  14.9013849  74.4260431  56.5298007
  14.5697173  75.2955842  56.3059222  14.3059462  74.1096715  57.2092038
   8.6370035  78.1655998  44.2628090   8.8044437  79.0336234  44.6298561
   8.4467204  78.3283280  43.3389379  11.3945368  86.6272977  55.9293920
  11.0946091  87.5298016  55.8209727  11.0496428  86.3605160  56.7815073
   4.8457850  83.0786774  51.9630625   3.9208346  82.9462988  52.1708316
   5.0942263  83.8580993  52.4600567  14.7942512  79.1455517  53.6091357
  13.8859389  79.0770925  53.3150118  14.7430108  79.6227462  54.4373183
   8.6159256  80.6213655  45.2474757   8.4958881  81.0670706  46.0860237
   7.9211844  80.9698973  44.6888295   2.2066661  82.7220047  52.7974414
   2.3359042  82.9754526  53.7113825   1.5264112  83.3147755  52.4779069
   8.8683378  80.5645163  61.5526255   8.0916712  81.1239083  61.5429119
   9.5073941  81.0501946  62.0741125  16.6604158  77.3471955  55.3869231
  16.0178539  77.6404489  54.7409026  16.1559087  77.2324876  56.1922428
  14.3144322  81.0935129  46.0755091  15.2262178  81.3262515  45.9002788
  13.8053969  81.6772173  45.5130169   7.1229750  83.3730616  61.1144222
   7.8644434  83.9115660  60.8379045   6.4166735  83.9996905  61.2715774
  12.5985090  85.5159756  59.7116383  13.0068446  85.0742167  58.9671016
  11.8762351  84.9412384  59.9650576   8.9516160  80.4532363  57.0849940
   9.7977355  80.8771777  57.2284589   8.8914797  79.7965987  57.7788503
  12.9213904  86.0760947  53.4668672  12.2922767  86.2406661  52.7644740
  12.5339566  86.4902557  54.2379636  16.8003136  87.0115385  50.8213036
  16.1154174  87.3914286  50.2710069  16.8846986  87.6210712  51.5544984
  12.1015605  78.1136732  58.7431114  11.8576537  78.8678792  58.2065390
  12.3775536  78.4922079  59.5778361  14.0554068  84.6575344  57.4208379
  14.2670963  85.3007104  56.7442760  14.0083816  83.8237660  56.9530309
  11.6580297  77.2693165  54.3244952  10.7964776  77.5674418  54.6161689
  11.6842731  77.4863563  53.3925984   8.4741866  85.8135355  50.7318757
   8.9380212  86.0923058  49.9423380   8.2098664  84.9118800  50.5491848
   5.3665947  85.3606837  53.6698520   5.9367304  85.7894105  53.0316005
   5.9574059  85.0789421  54.3682706   7.4110752  81.9358507  47.5408322
   8.1134796  82.3879551  48.0082249   7.0791381  81.2942326  48.1688215
   5.8591114  80.5270264  61.9159532   5.2289774  81.2086545  62.1494929
   5.7527202  80.4153346  60.9712670  15.1699896  87.5347299  55.5930737
  15.9917339  87.1327487  55.3113418  15.1662299  87.4315533  56.5446853
   3.1050832  80.5586639  49.8008933   2.3081995  80.6705334  50.3192428
   2.8776424  80.8973292  48.9349823   8.9356499  87.0831343  57.7491447
   9.0000932  87.5451750  58.5849619   8.2267423  86.4528708  57.8773757
  23.2605889  83.8786048  51.9415708  22.5069597  83.3093446  51.7859713
  23.3953430  83.8448712  52.8886343   8.6504517  88.7499450  47.6170428
   8.5150192  89.5950986  48.0455275   9.1914329  88.9518728  46.8536361
   5.1371856  74.8291030  64.2784783   4.7438802  74.2757229  64.9532427
   5.9537997  75.1401608  64.6691300   2.1033914  86.2674888  48.1898353
   2.6158435  87.0618138  48.3403917   2.7556627  85.5701179  48.1231954
   3.9128799  89.3840644  50.2721106   4.0895427  90.3058609  50.0842090
   4.7085632  89.0699064  50.7015486   8.0539817  76.2448909  61.8705039
   8.7949531  76.8456062  61.7909502   8.2857740  75.5026547  61.3123082
   3.1981156  81.4305276  60.1483269   3.0834671  80.5290534  60.4490368
   2.3425673  81.6768973  59.7968086  10.2772993  89.3723017  61.7470770
   9.8336847  88.5859395  61.4291674  10.9390207  89.5602167  61.0814660
  12.3754231  89.6525817  59.7752171  12.3572707  90.4734698  59.2832440
  13.2974151  89.5279892  60.0002312   8.8327285  87.1669946  60.6175679
   9.3655622  86.4058234  60.3874987   8.3041367  86.8743598  61.3599834
  11.9996980  72.2730012  56.1469321  11.6561250  73.1631654  56.0708432
  12.3675943  72.0831670  55.2838906  11.9647263  82.2638623  44.6541756
  11.4493887  83.0343228  44.8930144  11.6924572  81.5903759  45.2774818
   9.5494374  77.1088324  49.7126995   8.6935971  76.7195174  49.5332633
   9.9621326  77.1880285  48.8526780  11.0793521  74.6434667  54.1118554
  10.5758316  74.6064802  53.2986360  11.3724128  75.5527410  54.1715211
   7.3236407  74.7273397  53.1184736   8.1889403  74.5316206  52.7590625
   7.3913916  74.4983749  54.0454093  16.9381537  85.0170978  46.5894930
  16.1610980  84.6782137  46.1450092  17.6173018  85.0223601  45.9149895
  11.7533566  80.1365715  46.4801537  11.4483702  80.4511864  47.3311681
  12.7064008  80.2147135  46.5228870  10.1979998  86.2955939  48.1294491
   9.6701360  85.5608698  47.8167729   9.6967501  87.0730615  47.8834460
  15.1772844  84.4904959  53.2461538  14.5196519  85.1804220  53.3341666
  15.9813243  84.8801391  53.5895524   4.9298726  76.9575605  50.4901103
   5.5042478  76.7350786  49.7574296   5.5169708  77.0264299  51.2429704
  13.9878303  82.8449332  51.2965479  14.5010185  83.4779324  51.7987189
  14.6379527  82.2450527  50.9308839   5.2568313  78.9880066  44.5096988
   4.4205625  79.3254752  44.8306263   5.1173083  78.8529046  43.5724125
   7.2321393  73.8316854  49.2176172   6.5785806  73.5165871  48.5932787
   7.1901868  73.2092594  49.9435995   8.3432598  84.1136149  41.1329464
   7.4359660  83.8825402  41.3320613   8.8403630  83.3173768  41.3203446
  10.4659134  80.3198787  53.5423820   9.5481695  80.5413734  53.3845508
  10.8819277  80.3945098  52.6835527  11.2494182  81.7190203  48.6726500
  11.9966001  82.2311600  48.3633622  11.5185771  81.3974256  49.5330894
   9.5220832  84.2148744  45.6553454   8.6132051  83.9307776  45.7525924
   9.5515916  84.6347822  44.7956761  14.7540099  87.8255333  49.4244622
  14.3002426  86.9846243  49.4809812  14.1234066  88.4616732  49.7619402
  13.6973019  78.7547319  50.6545289  12.9595776  78.2424705  50.9855532
  13.9499792  78.3147701  49.8428566  13.1973038  89.6631830  50.3594440
  13.4896013  90.2236887  49.6406806  13.7071659  89.9560391  51.1147599
  13.7984646  71.5323571  51.2487059  14.1043523  70.6720935  50.9612974
  14.5237251  72.1241191  51.0486053   8.0705726  81.8277364  51.7563250
   8.1254336  80.8751201  51.6805726   7.2596928  81.9836803  52.2404548
   9.2196920  85.7557487  42.9941533   8.7816350  85.0393346  42.5347170
   9.9607360  85.9833602  42.4326624   6.0098086  80.4454424  49.5153629
   5.1965951  80.7448595  49.9218821   6.5057080  80.0510113  50.2328111
   8.1606664  90.4412181  51.4487893   8.1182842  90.6673027  50.5196425
   9.0769362  90.2075556  51.5973695  11.6072297  80.9096248  58.3468523
  11.9621685  81.1367722  59.2062988  12.2544429  81.2414625  57.7245778
  17.3370034  84.0314684  49.0517852  17.1987933  84.2216280  48.1239041
  16.9806253  84.7934067  49.5085903   5.5012161  78.0172780  55.1314864
   6.1411540  77.8761539  54.4337827   4.6689691  77.7307293  54.7553466
  17.3639414  86.0991211  54.0629123  17.7975921  86.0066500  54.9112177
  18.0770995  86.0748712  53.4249139   6.2772464  87.3175210  51.2449856
   7.0713063  86.8225530  51.0432431   5.5664157  86.7893073  50.8817562
  11.0967309  89.6993305  55.5962224  11.1504331  90.2684242  56.3639940
  10.2282090  89.8695190  55.2316261   2.5855228  81.4618292  47.3209609
   1.6552816  81.4002747  47.5379571   2.6812700  80.9394244  46.5246250
   2.5040777  77.9873104  49.9087850   2.7647594  78.9018438  49.7997011
   3.3257949  77.5197547  50.0584463   3.9765702  79.4010862  57.0786675
   4.6488756  79.1928224  56.4299324   3.1495489  79.2032948  56.6391907
  18.2254964  86.1414912  56.5962008  18.4190854  87.0460723  56.8421283
  18.1255582  85.6822331  57.4300594   9.8791274  76.0272803  59.0952336
   9.2319189  76.7262752  59.0016812  10.6492290  76.4608947  59.4628584
  13.2870072  86.2921655  62.1702889  13.1355579  86.0632206  61.2532973
  13.2774752  87.2492256  62.1834234  10.0555409  83.8653567  57.1549156
  10.9847469  84.0164727  56.9818123   9.6346439  83.9537588  56.2997802
   8.8543740  87.8904232  54.9247693   8.7154826  87.5223016  55.7973631
   8.0658337  88.4051871  54.7531651  10.4048956  87.2685835  52.3136531
  10.0698788  87.2286605  53.2094181   9.9052901  86.6030551  51.8406941
   4.3793200  82.6753465  57.8389112   4.2412997  81.9433703  58.4400651
   5.2898123  82.5862365  57.5573300  13.3408147  84.6141869  42.5873591
  12.7237318  83.8888697  42.4906643  12.8724636  85.3751229  42.2440665
   7.0075500  82.3873424  57.3272792   7.7175119  81.7466616  57.2859410
   6.9644808  82.6386319  58.2498973  14.9962279  89.3240777  60.2479371
  14.9374825  88.6399997  59.5809954  15.3981797  90.0659767  59.7959997
   5.7204434  79.3738642  59.1468431   5.1841791  78.9229380  59.7990028
   5.1321143  79.5084551  58.4038896   5.1306693  78.8327293  41.7094895
   4.2536159  78.7116094  41.3457142   5.6064446  78.0413372  41.4573784
  14.9979686  87.2880361  58.4793351  14.1106465  86.9506283  58.6019750
  15.5678237  86.5563392  58.7162116   1.4543555  78.5094650  56.2321426
   1.3701744  77.9020319  55.4971836   0.6326262  79.0003668  56.2330922
   8.3170619  91.1853584  48.9557415   7.5338141  91.7275264  49.0495640
   9.0163364  91.7027563  49.3551657  11.6267269  76.9948213  51.5991621
  12.1235969  76.2418175  51.2792691  10.8554251  77.0312530  51.0334830
  19.4797027  82.6988579  53.2409912  19.4686903  83.5813294  52.8703845
  18.6114406  82.3460129  53.0464449  10.9879523  91.8468648  57.6012753
  11.7007495  92.4816112  57.5288654  10.4969552  91.9432514  56.7852754
  12.7097050  85.7519900  49.1730044  11.7753329  85.8721363  49.0034748
  12.8873718  84.8492367  48.9090054   8.2102238  79.1365596  51.3263305
   7.8400026  78.5836636  52.0144211   8.7061330  78.5323730  50.7738305
  16.0969601  81.5937220  49.7080078  16.5630054  82.4265211  49.6340381
  16.5477102  81.1282201  50.4125337   6.0391437  89.5963091  58.4218323
   6.7400896  90.2299574  58.5747718   5.5686552  89.9377823  57.6613963
  14.1645832  87.9381041  46.7066230  14.4405676  87.8237635  47.6160104
  13.2950331  87.5398526  46.6678403  14.0686264  73.9617807  53.7470980
  13.1549344  74.1922033  53.9153187  14.4979366  74.0456251  54.5985012
  13.8392723  82.1507699  56.2470874  13.1864173  82.3983606  55.5923326
  14.2173102  81.3371837  55.9133351  10.7999896  92.1867392  50.3499044
  10.9822291  91.3689048  50.8126796  11.6232882  92.4035084  49.9123934
  11.1342062  91.1135577  47.6114092  11.6629828  90.6028031  46.9984255
  11.3970282  90.7978107  48.4759625   9.8880296  82.8927510  62.7336911
   9.2120933  82.7921639  63.4039286  10.7107929  82.7366723  63.1972908
   1.6359155  89.1299446  55.3549426   2.2212591  88.3843134  55.4877330
   1.4383993  89.4403403  56.2386090   3.6067572  76.5469587  57.5716411
   3.6708898  77.4084418  57.1593809   3.5434692  75.9343589  56.8388770
   3.0819844  78.6192719  61.2189446   3.7091883  78.2369797  61.8326970
   2.2247763  78.4006921  61.5845138  13.4813953  89.0255695  62.8243181
  14.0253857  89.6385653  62.3298136  12.9000798  89.5835273  63.3410194
  11.7671466  92.1476413  53.9558209  11.6422605  91.3466152  53.4469154
  12.4250557  92.6422606  53.4672179   3.3879634  78.5025145  53.1335349
   2.6666220  79.1161113  52.9942822   4.1772890  79.0382910  53.0551995
  13.8306374  89.9485433  55.5837759  12.8836710  89.8290784  55.5116086
  14.1789147  89.0607931  55.6664020   6.1905947  75.8379572  59.4076001
   6.7140349  76.0841868  60.1702310   5.9718281  76.6699606  58.9879138
   1.5873229  78.1083246  47.2747126   1.2585935  77.2280625  47.0922232
   1.9412599  78.0530915  48.1623515  10.8352807  89.7438149  51.7842111
  10.6877770  88.8154856  51.9649681  11.6606301  89.7658240  51.2999186
   4.7015052  78.3956216  47.6422603   5.0411124  78.9242137  46.9201212
   5.1487172  78.7336622  48.4181170  14.4386929  90.5666708  52.8706984
  15.3633477  90.3609569  52.7331435  14.2702233  90.3183109  53.7796325
   7.3958493  76.7793267  57.0925671   7.0555313  75.9801080  57.4946351
   6.6897499  77.0794978  56.5202505   8.0474964  73.8642579  55.5452994
   8.8701034  73.3903057  55.4231885   8.2913028  74.6433063  56.0451681
   6.6883199  76.8930838  45.8415896   7.4091561  77.2712090  45.3379613
   6.0648503  77.6119714  45.9450874  10.8314322  77.5975987  46.7774228
  11.0477936  78.4800624  46.4763057  10.3508389  77.2062200  46.0479870
   5.5713543  80.5561700  53.3544973   5.4258124  80.8702003  54.2469255
   5.0938747  81.1746600  52.8015872   7.4309926  77.5464248  53.4025863
   7.4171495  76.6505341  53.0658161   8.1482354  77.5534911  54.0364149
   9.2836057  77.9801588  55.4478990   9.0253835  78.9018659  55.4463320
   8.7521097  77.5832022  56.1379454  14.2282245  91.0852375  48.2269075
  14.4019123  90.5198798  47.4742928  14.7211137  91.8853270  48.0448565
   6.8346822  76.4278628  48.6713433   6.9562733  75.4995274  48.8704320
   6.5448864  76.4417314  47.7591748   9.7038012  74.1133538  51.8080153
   9.7259709  74.1772872  50.8532132  10.1206071  73.2738047  52.0020659
  20.0821637  83.8488798  49.8459375  20.5252783  83.0996123  49.4478498
  19.2048147  83.8398934  49.4633107  15.2157418  90.4019139  45.3265974
  15.9108323  91.0225832  45.5453288  15.5580568  89.5514491  45.6018352
  17.1148841  87.8518845  46.8553304  17.6400165  88.1906118  46.1302625
  17.0271194  86.9165860  46.6716439   8.7768890  91.7652919  58.9843181
   9.0856016  91.5202065  59.8565881   9.5744372  91.9699557  58.4962051
   6.2463374  89.4628837  53.2870859   5.6243383  88.7999542  52.9873087
   6.9168241  89.4889969  52.6044507   6.3187901  77.9410625  62.8803365
   6.3676057  78.8172748  62.4981135   6.8610416  77.3988018  62.3075009
  16.8042747  88.4851749  62.1604502  16.0138291  88.4675887  61.6209002
  16.5676102  89.0240042  62.9153539  16.9240622  85.3344215  59.4737231
  16.9738627  85.1694222  60.4152754  16.8154546  84.4671474  59.0835112
   5.8076881  88.0132761  46.7629320   5.9565001  88.6968225  46.1095993
   6.6143324  87.9937851  47.2778776  14.2144385  81.3175143  60.7896538
  15.1154247  81.1781608  60.4980535  14.2892359  81.4829598  61.7294715
   8.5487190  78.6941998  59.6349724   7.6790499  78.9875564  59.3632313
   8.7846670  79.2782443  60.3556988  18.4258819  87.7541157  59.7179253
  18.1343627  88.1171137  60.5542713  17.8130950  87.0408165  59.5392585
  19.6254501  85.3194036  52.2381823  20.4601393  85.7583840  52.4019383
  19.7613630  84.8432690  51.4190069  16.6746007  82.8773771  58.1859311
  17.1500129  83.0701417  57.3778162  15.7511573  82.9332957  57.9402694
   3.5629514  84.0397938  47.7690389   3.3175556  83.1360268  47.9670599
   3.7325428  84.0415089  46.8269867  11.2526224  74.9121615  57.1515144
  11.7708168  75.6482642  56.8261633  10.8981357  75.2185608  57.9861904
   2.8325161  79.7726296  45.2676550   2.1394406  79.8470651  44.6116586
   2.5876913  79.0086640  45.7898067  11.5038818  71.3321897  52.6716041
  11.7840572  70.6645086  53.2976468  12.2889425  71.5250993  52.1590705
   9.3072286  90.5080891  44.2341067   8.7346253  91.1271078  43.7811539
   9.8805080  91.0580253  44.7680989  15.3747676  79.7539531  56.4187616
  16.3265099  79.8537629  56.4399840  15.2051127  78.9617800  56.9285700
  13.3962056  76.8395114  56.6047017  12.8011988  77.1200127  55.9093506
  13.1111752  77.3289015  57.3763758  12.5269546  90.7918041  45.3649650
  13.4600219  90.7263603  45.5682525  12.4392759  91.6274308  44.9064182
  15.1557563  90.1083912  42.3253597  15.0771194  89.7743775  43.2189355
  15.9767230  90.6005680  42.3245069  17.8535754  82.9745651  55.5329916
  17.8212074  82.0361652  55.7189600  18.4636378  83.0529688  54.7995741
   9.6919085  81.8441704  41.5757120  10.6378190  81.7147912  41.6445538
   9.3133330  81.1056366  42.0526548  18.0030243  79.7656694  55.5788199
  17.4869291  78.9815151  55.3918128  18.8870191  79.4375411  55.7434718
  15.6640969  73.5097710  51.5384012  15.4665791  73.2012798  52.4227344
  16.2740675  74.2359349  51.6681941  23.6712304  84.0361658  54.6735953
  24.4015692  83.7746946  55.2343656  23.0619249  83.2990380  54.7138021
  21.7527601  82.1769520  55.2710404  21.0260765  82.0425485  54.6626895
  21.3374888  82.4846349  56.0767122   9.5757777  85.8959450  63.0357777
  10.4960787  86.0738049  63.2297823   9.5407360  84.9515495  62.8837476
   7.8762002  79.7691680  41.5112005   6.9693457  79.4724793  41.5874719
   8.1537983  79.4721498  40.6446291   2.5719850  83.8060485  55.6780558
   2.7905860  84.7377593  55.6968592   2.9845624  83.4468459  56.4635362
   9.4924068  74.3128570  47.6656246   8.6824796  73.9675655  48.0411492
  10.1808485  74.0036114  48.2543858  11.4214616  73.3906617  49.2880543
  11.9745655  73.8102070  49.9470566  11.6584702  72.4642365  49.3303499
   7.4447715  79.3793690  65.0683307   7.3444442  80.3288047  64.9995398
   7.2269257  79.0511929  64.1959377   6.6460787  76.6278616  41.6523984
   7.5079951  76.9533514  41.9119802   6.8311131  75.8410111  41.1397050
  14.7993423  75.5007142  48.7959207  14.2192092  76.1591946  48.4137260
  14.5329356  74.6784487  48.3846625  13.2496990  74.9012200  50.9980528
  13.7496768  75.0128734  50.1894846  13.8932597  74.5973253  51.6381336
   7.3078985  82.8090829  63.8848369   6.8246067  83.6091189  64.0912258
   7.3939924  82.8198774  62.9315813   3.2352323  86.6995364  55.9216802
   4.1895576  86.6679306  55.8546734   3.0364846  86.2385988  56.7367028
   3.8251705  85.2696480  58.4887600   4.6444594  85.7640559  58.5122437
   4.0988513  84.3528448  58.4605167  13.5818301  77.6607232  47.8515555
  12.6944156  77.9456883  47.6335750  13.9972290  77.5000996  47.0042832
  16.9332837  77.6853753  51.5669895  17.7093227  78.1750206  51.8394512
  16.2080971  78.1111808  52.0241764  19.3705396  78.3981373  52.6243835
  19.9649887  78.1577109  51.9137144  19.4431980  77.6788503  53.2517372
  12.7261515  87.4251907  41.9463575  13.4297365  87.6301910  42.5621231
  12.0024163  87.9928669  42.2112659  13.5559325  83.1761768  48.0665846
  13.4994526  83.6330320  47.2273478  14.1087667  82.4152453  47.8888688
  17.3664131  78.9651500  48.8915965  17.1101065  78.5648136  49.7224173
  16.7416999  79.6795294  48.7666104  21.6776469  81.7047573  51.3987257
  21.1176027  81.7740763  52.1718819  21.0719972  81.5288558  50.6786753
  14.6348212  87.8634436  43.9962036  15.4693816  87.4315635  43.8139510
  14.4732555  87.6916450  44.9238930  14.2894104  84.3666550  45.3618375
  14.2342908  84.2010821  44.4206819  13.6640160  85.0742582  45.5180565
  11.6040011  86.6715461  64.6871938  12.4731171  86.8456114  64.3258573
  11.1246763  87.4909878  64.5647667   7.5990230  73.8674659  44.9403693
   7.5868900  74.8116498  45.0971964   8.4913652  73.6844804  44.6463154
  11.4142349  70.4617435  49.1949630  10.6474745  69.9075922  49.3406312
  11.8253054  70.5339304  50.0563782   3.4184110  76.7502231  63.2854811
   4.2815572  76.3939036  63.4958136   2.8449521  76.4116126  63.9730216
  22.8173756  96.1055541  51.1670420  23.6036845  95.6874964  50.8160837
  23.0812460  97.0101633  51.3352069  28.2182183  96.0430774  52.0703399
  28.9507355  95.4729991  52.3041228  27.4621538  95.6552375  52.5109904
  25.7407603  89.7552348  56.5298007  25.4090928  90.6247759  56.3059222
  25.1453216  89.4388632  57.2092038  19.4763789  93.4947916  44.2628090
  19.6438192  94.3628152  44.6298561  19.2860959  93.6575197  43.3389379
  25.6336266  94.4747435  53.6091357  24.7253144  94.4062843  53.3150118
  25.5823862  94.9519380  54.4373183  27.4997913  92.6763873  55.3869231
  26.8572293  92.9696406  54.7409026  26.9952841  92.5616793  56.1922428
  25.1538076  96.4227046  46.0755091  26.0655933  96.6554433  45.9002788
  24.6447724  97.0064090  45.5130169  19.7909914  95.7824281  57.0849940
  20.6371109  96.2063694  57.2284589  19.7308552  95.1257905  57.7788503
  22.9409360  93.4428649  58.7431114  22.6970291  94.1970710  58.2065390
  23.2169290  93.8213997  59.5778361  22.4974051  92.5985082  54.3244952
  21.6358530  92.8966336  54.6161689  22.5236486  92.8155481  53.3925984
  34.0999643  99.2077965  51.9415708  33.3463352  98.6385364  51.7859713
  34.2347185  99.1740630  52.8886343  15.9765611  90.1582948  64.2784783
  15.5832557  89.6049146  64.9532427  16.7931751  90.4693526  64.6691300
  18.8933572  91.5740827  61.8705039  19.6343285  92.1747980  61.7909502
  19.1251495  90.8318465  61.3123082  22.8390735  87.6021930  56.1469321
  22.4955004  88.4923571  56.0708432  23.2069698  87.4123587  55.2838906
  20.3888129  92.4380242  49.7126995  19.5329725  92.0487092  49.5332633
  20.8015080  92.5172202  48.8526780  21.9187275  89.9726585  54.1118554
  21.4152071  89.9356720  53.2986360  22.2117882  90.8819328  54.1715211
  18.1630161  90.0565315  53.1184736  19.0283158  89.8608123  52.7590625
  18.2307670  89.8275666  54.0454093  22.5927321  95.4657633  46.4801537
  22.2877456  95.7803782  47.3311681  23.5457763  95.5439053  46.5228870
  15.7692480  92.2867522  50.4901103  16.3436232  92.0642704  49.7574296
  16.3563463  92.3556217  51.2429704  18.0715148  89.1608771  49.2176172
  17.4179560  88.8457789  48.5932787  18.0295622  88.5384512  49.9435995
  21.3052888  95.6490705  53.5423820  20.3875450  95.8705652  53.3845508
  21.7213032  95.7237015  52.6835527  24.5366773  94.0839237  50.6545289
  23.7989530  93.5716623  50.9855532  24.7893547  93.6439618  49.8428566
  24.6378401  86.8615489  51.2487059  24.9437277  86.0012852  50.9612974
  25.3631005  87.4533109  51.0486053  22.4466052  96.2388166  58.3468523
  22.8015440  96.4659639  59.2062988  23.0938183  96.5706543  57.7245778
  16.3405915  93.3464697  55.1314864  16.9805294  93.2053456  54.4337827
  15.5083446  93.0599211  54.7553466  20.7185029  91.3564720  59.0952336
  20.0712944  92.0554670  59.0016812  21.4886044  91.7900864  59.4628584
  16.5598189  94.7030560  59.1468431  16.0235546  94.2521298  59.7990028
  15.9714897  94.8376468  58.4038896  15.9700448  94.1619211  41.7094895
  15.0929914  94.0408012  41.3457142  16.4458201  93.3705289  41.4573784
  22.4661024  92.3240131  51.5991621  22.9629723  91.5710093  51.2792691
  21.6948005  92.3604447  51.0334830  30.3190781  98.0280496  53.2409912
  30.3080657  98.9105212  52.8703845  29.4508161  97.6752047  53.0464449
  19.0495993  94.4657514  51.3263305  18.6793780  93.9128554  52.0144211
  19.5455085  93.8615647  50.7738305  26.9363356  96.9229137  49.7080078
  27.4023808  97.7557129  49.6340381  27.3870856  96.4574119  50.4125337
  24.9080019  89.2909724  53.7470980  23.9943098  89.5213951  53.9153187
  25.3373120  89.3748168  54.5985012  14.4461326  91.8761505  57.5716411
  14.5102653  92.7376335  57.1593809  14.3828446  91.2635506  56.8388770
  13.9213599  93.9484637  61.2189446  14.5485638  93.5661714  61.8326970
  13.0641518  93.7298839  61.5845138  17.0299702  91.1671489  59.4076001
  17.5534104  91.4133786  60.1702310  16.8112035  91.9991524  58.9879138
  12.4266983  93.4375164  47.2747126  12.0979689  92.5572543  47.0922232
  12.7806354  93.3822833  48.1623515  15.5408806  93.7248134  47.6422603
  15.8804879  94.2534055  46.9201212  15.9880927  94.0628540  48.4181170
  18.2352247  92.1085184  57.0925671  17.8949067  91.3092997  57.4946351
  17.5291253  92.4086895  56.5202505  18.8868719  89.1934497  55.5452994
  19.7094788  88.7194975  55.4231885  19.1306782  89.9724981  56.0451681
  17.5276953  92.2222755  45.8415896  18.2485316  92.6004008  45.3379613
  16.9042257  92.9411632  45.9450874  21.6708076  92.9267904  46.7774228
  21.8871691  93.8092542  46.4763057  21.1902143  92.5354118  46.0479870
  18.2703680  92.8756165  53.4025863  18.2565249  91.9797259  53.0658161
  18.9876109  92.8826829  54.0364149  20.1229811  93.3093506  55.4478990
  19.8647589  94.2310576  55.4463320  19.5914852  92.9123940  56.1379454
  17.6740576  91.7570546  48.6713433  17.7956488  90.8287192  48.8704320
  17.3842619  91.7709232  47.7591748  20.5431767  89.4425456  51.8080153
  20.5653464  89.5064789  50.8532132  20.9599826  88.6029965  52.0020659
  30.9215391  99.1780716  49.8459375  31.3646537  98.4288041  49.4478498
  30.0441901  99.1690852  49.4633107  17.1581656  93.2702543  62.8803365
  17.2069811  94.1464666  62.4981135  17.7004170  92.7279936  62.3075009
  25.0538139  96.6467061  60.7896538  25.9548002  96.5073526  60.4980535
  25.1286114  96.8121516  61.7294715  19.3880944  94.0233915  59.6349724
  18.5184254  94.3167482  59.3632313  19.6240425  94.6074360  60.3556988
  27.5139762  98.2065689  58.1859311  27.9893883  98.3993335  57.3778162
  26.5905327  98.2624875  57.9402694  22.0919978  90.2413532  57.1515144
  22.6101922  90.9774559  56.8261633  21.7375111  90.5477526  57.9861904
  22.3432572  86.6613815  52.6716041  22.6234326  85.9937004  53.2976468
  23.1283179  86.8542911  52.1590705  26.2141431  95.0831449  56.4187616
  27.1658854  95.1829547  56.4399840  26.0444881  94.2909717  56.9285700
  24.2355810  92.1687032  56.6047017  23.6405742  92.4492045  55.9093506
  23.9505507  92.6580933  57.3763758  28.6929509  98.3037569  55.5329916
  28.6605829  97.3653569  55.7189600  29.3030132  98.3821605  54.7995741
  28.8423997  95.0948612  55.5788199  28.3263046  94.3107069  55.3918128
  29.7263946  94.7667329  55.7434718  26.5034724  88.8389628  51.5384012
  26.3059545  88.5304716  52.4227344  27.1134430  89.5651267  51.6681941
  34.5106058  99.3653575  54.6735953  35.2409447  99.1038864  55.2343656
  33.9013004  98.6282297  54.7138021  32.5921356  97.5061438  55.2710404
  31.8654519  97.3717403  54.6626895  32.1768642  97.8138267  56.0767122
  18.7155757  95.0983598  41.5112005  17.8087212  94.8016711  41.5874719
  18.9931738  94.8013416  40.6446291  20.3317822  89.6420488  47.6656246
  19.5218551  89.2967573  48.0411492  21.0202239  89.3328031  48.2543858
  22.2608371  88.7198534  49.2880543  22.8139409  89.1393988  49.9470566
  22.4978457  87.7934283  49.3303499  17.4854541  91.9570533  41.6523984
  18.3473705  92.2825431  41.9119802  17.6704885  91.1702029  41.1397050
  25.6387178  90.8299060  48.7959207  25.0585847  91.4883864  48.4137260
  25.3723110  90.0076404  48.3846625  24.0890744  90.2304117  50.9980528
  24.5890522  90.3420652  50.1894846  24.7326352  89.9265170  51.6381336
  24.4212056  92.9899150  47.8515555  23.5337911  93.2748801  47.6335750
  24.8366045  92.8292913  47.0042832  27.7726592  93.0145671  51.5669895
  28.5486982  93.5042123  51.8394512  27.0474726  93.4403725  52.0241764
  30.2099150  93.7273290  52.6243835  30.8043641  93.4869026  51.9137144
  30.2825734  93.0080421  53.2517372  28.2057885  94.2943418  48.8915965
  27.9494820  93.8940053  49.7224173  27.5810753  95.0087212  48.7666104
  32.5170223  97.0339491  51.3987257  31.9569781  97.1032680  52.1718819
  31.9113727  96.8580476  50.6786753  18.4383984  89.1966576  44.9403693
  18.4262654  90.1408416  45.0971964  19.3307406  89.0136722  44.6463154
  22.2536104  85.7909353  49.1949630  21.4868499  85.2367840  49.3406312
  22.6646809  85.8631222  50.0563782  14.2577865  92.0794149  63.2854811
  15.1209326  91.7230954  63.4958136  13.6843275  91.7408043  63.9730216
   1.5818381  30.2264335  38.6661015   0.8282089  29.6571733  38.5105019
   1.7165922  30.1927000  39.6131650   1.9924796  30.3839945  41.3981259
   2.7228185  30.1225233  41.9588963   1.3831742  29.6468667  41.4383327
   1.5844979  44.7282375  40.8162519   2.2223389  44.6089122  40.1125859
   1.4665822  45.6763219  40.8750471   1.1386248  42.4533828  37.8915727
   1.9249337  42.0353252  37.5406144   1.4024952  43.3579921  38.0597375
   1.3096325  47.8906679  32.5904384   0.6742158  47.9641305  33.3025288
   0.9793732  48.4800278  31.9123463   6.5394675  42.3909062  38.7948705
   7.2719847  41.8208278  39.0286535   5.7834031  42.0030662  39.2355211
   4.0620095  36.1030636  43.2543314   3.7303420  36.9726047  43.0304529
   3.4665709  35.7866920  43.9337344   3.9548759  40.8225722  40.3336664
   3.0465636  40.7541130  40.0395425   3.9036354  41.2997667  41.1618490
   5.8210405  39.0242160  42.1114538   5.1784785  39.3174693  41.4654333
   5.3165334  38.9095081  42.9167735   3.4750569  42.7705333  32.8000397
   4.3868425  43.0032720  32.6248095   2.9660216  43.3542378  32.2375476
   1.7591336  47.1929961  46.4361690   2.1674692  46.7512372  45.6916322
   1.0368598  46.6182589  46.6895883   2.0820151  47.7531152  40.1913979
   1.4529014  47.9176866  39.4890047   1.6945813  48.1672762  40.9624943
   5.9609383  48.6885590  37.5458343   5.2760421  49.0684491  36.9955376
   6.0453232  49.2980916  38.2790290   1.2621852  39.7906936  45.4676420
   1.0182784  40.5448997  44.9310696   1.5381782  40.1692284  46.3023668
   3.2160315  46.3345549  44.1453686   3.4277210  46.9777309  43.4688067
   3.1690063  45.5007865  43.6775616   4.3306143  49.2117504  42.3176043
   5.1523586  48.8097692  42.0358725   4.3268545  49.1085738  43.2692159
  12.4212136  45.5556253  38.6661015  11.6675844  44.9863651  38.5105019
  12.5559677  45.5218917  39.6131650   1.5360478  51.3296021  46.4997478
   1.5178953  52.1504903  46.0077747   2.4580398  51.2050097  46.7247619
   1.1603227  33.9500217  42.8714628   0.8167497  34.8401859  42.7953738
   1.5282190  33.7601875  42.0084213   6.0987784  46.6941183  33.3140236
   5.3217227  46.3552342  32.8695398   6.7779265  46.6993806  32.6395201
   4.3379091  46.1675164  39.9706844   3.6802765  46.8574425  40.0586973
   5.1419490  46.5571596  40.3140831   3.1484550  44.5219537  38.0210786
   3.6616432  45.1549528  38.5232496   3.7985774  43.9220732  37.6554146
   3.9146346  49.5025538  36.1489929   3.4608673  48.6616448  36.2055119
   3.2840313  50.1386936  36.4864709   2.8579266  40.4317524  37.3790596
   2.1202022  39.9194910  37.7100839   3.1106039  39.9917906  36.5673873
   2.3579285  51.3402035  37.0839747   2.6502260  51.9007092  36.3652112
   2.8677906  51.6330596  37.8392906   2.9590893  33.2093776  37.9732365
   3.2649770  32.3491140  37.6858280   3.6843498  33.8011396  37.7731359
   0.7678544  42.5866453  45.0713829   1.1227932  42.8137927  45.9308295
   1.4150675  42.9184830  44.4491084   6.4976281  45.7084889  35.7763158
   6.3594180  45.8986485  34.8484347   6.1412500  46.4704272  36.2331209
   6.5245661  47.7761416  40.7874430   6.9582167  47.6836705  41.6357484
   7.2377241  47.7518917  40.1494446   7.3861210  47.8185117  43.3207315
   7.5797100  48.7230927  43.5666590   7.2861828  47.3592536  44.1545900
   2.4476319  47.9691860  48.8948196   2.2961825  47.7402411  47.9778279
   2.4380998  48.9262461  48.9079541   2.5014394  46.2912074  29.3118897
   1.8843565  45.5658902  29.2151950   2.0330882  47.0521434  28.9685972
   4.1568526  51.0010982  46.9724678   4.0981072  50.3170202  46.3055261
   4.5588044  51.7429972  46.5205304   4.1585933  48.9650566  45.2038657
   3.2712712  48.6276488  45.3265056   4.7284484  48.2333597  45.4407423
   8.6403273  44.3758784  39.9655219   8.6293150  45.2583499  39.5949152
   7.7720653  44.0230334  39.7709756   1.8703297  47.4290105  35.8975351
   0.9359575  47.5491568  35.7280055   2.0479965  46.5262572  35.6335361
   5.2575848  43.2707424  36.4325385   5.7236300  44.1035416  36.3585688
   5.7083349  42.8052406  37.1370643   3.3252079  49.6151246  33.4311537
   3.6011923  49.5007840  34.3405411   2.4556578  49.2168731  33.3923710
   3.2292511  35.6388011  40.4716286   2.3155591  35.8692238  40.6398493
   3.6585612  35.7226456  41.3230319   2.9998969  43.8277903  42.9716180
   2.3470420  44.0753811  42.3168633   3.3779349  43.0142042  42.6378658
   2.6420200  50.7025899  49.5488488   3.1860104  51.3155858  49.0543443
   2.0607044  51.2605478  50.0655501   0.9277712  53.8246617  40.6803516
   0.8028852  53.0236357  40.1714461   1.5856804  54.3192811  40.1917486
   2.9912621  51.6255638  42.3083066   2.0442956  51.5060989  42.2361392
   3.3395394  50.7378136  42.3909327   3.5993176  52.2436913  39.5952291
   4.5239723  52.0379774  39.4576742   3.4308479  51.9953314  40.5041632
   3.3888492  52.7622580  34.9514382   3.5625370  52.1969002  34.1988235
   3.8817383  53.5623475  34.7693872   9.2427883  45.5259003  36.5704682
   9.6859029  44.7766328  36.1723805   8.3654394  45.5169139  36.1878414
   4.3763665  52.0789344  32.0511280   5.0714569  52.6996037  32.2698595
   4.7186815  51.2284696  32.3263658   6.2755088  49.5289050  33.5798611
   6.8006412  49.8676323  32.8547931   6.1877440  48.5936065  33.3961746
   5.9648994  50.1621954  48.8849809   5.1744538  50.1446092  48.3454308
   5.7282348  50.7010247  49.6398846   6.0846869  47.0114420  46.1982538
   6.1344874  46.8464427  47.1398060   5.9760792  46.1441679  45.8080418
   3.3750631  42.9945348  47.5141844   4.2760494  42.8551813  47.2225842
   3.4498606  43.1599803  48.4540022   7.5865066  49.4311361  46.4424559
   7.2949874  49.7941342  47.2788020   6.9737197  48.7178370  46.2637891
   8.7860748  46.9964241  38.9627129   9.6207639  47.4354045  39.1264690
   8.9219877  46.5202894  38.1435375   5.8352254  44.5543976  44.9104617
   6.3106376  44.7471622  44.1023469   4.9117819  44.6103162  44.6648001
   0.6645065  33.0092102  39.3961348   0.9446818  32.3415291  40.0221774
   1.4495672  33.2021198  38.8836011   4.5353923  41.4309736  43.1432923
   5.4871346  41.5307834  43.1645147   4.3657373  40.6388005  43.6531007
   2.5568302  38.5165319  43.3292324   1.9618235  38.7970332  42.6338812
   2.2717999  39.0059220  44.1009065   1.6875793  52.4688246  32.0894956
   2.6206466  52.4033808  32.2927832   1.5999006  53.3044513  31.6309489
   4.3163810  51.7854117  29.0498904   4.2377441  51.4513980  29.9434662
   5.1373476  52.2775884  29.0490376   7.0142001  44.6515856  42.2575222
   6.9818321  43.7131857  42.4434906   7.6242624  44.7299893  41.5241047
   7.1636489  41.4426899  42.3033506   6.6475538  40.6585356  42.1163434
   8.0476438  41.1145616  42.4680025   4.8247216  35.1867915  38.2629318
   4.6272037  34.8783003  39.1472650   5.4346922  35.9129554  38.3927248
  12.8318551  45.7131863  41.3981259  13.5621939  45.4517151  41.9588963
  12.2225496  44.9760585  41.4383327  10.9133848  43.8539725  41.9955710
  10.1867011  43.7195690  41.3872202  10.4981135  44.1616554  42.8012428
   3.9599670  37.1777347  35.5204514   3.3798339  37.8362151  35.1382566
   3.6935603  36.3554691  35.1091931   2.4103236  36.5782405  37.7225834
   2.9103015  36.6898939  36.9140153   3.0538844  36.2743457  38.3626643
   2.7424548  39.3377437  34.5760862   1.8550403  39.6227088  34.3581057
   3.1578537  39.1771201  33.7288139   6.0939084  39.3623958  38.2915201
   6.8699474  39.8520411  38.5639818   5.3687218  39.7882012  38.7487071
   8.5311643  40.0751577  39.3489142   9.1256134  39.8347313  38.6382450
   8.6038226  39.3558708  39.9762678   1.8867761  49.1022112  28.6708882
   2.5903612  49.3072114  29.2866538   1.1630410  49.6698874  28.9357966
   2.7165572  44.8531973  34.7911152   2.6600773  45.3100525  33.9518785
   3.2693914  44.0922658  34.6133995   6.5270378  40.6421705  35.6161272
   6.2707312  40.2418341  36.4469479   5.9023246  41.3565499  35.4911411
  10.8382715  43.3817778  38.1232563  10.2782273  43.4510968  38.8964125
  10.2326219  43.2058763  37.4032059   3.7954459  49.5404641  30.7207342
   4.6300063  49.1085840  30.5384817   3.6338802  49.3686655  31.6484237
   3.4500351  46.0436754  32.0863681   3.3949155  45.8781026  31.1452126
   2.8246406  46.7512787  32.2425871  12.4238734  60.0574292  40.8162519
  13.0617144  59.9381040  40.1125859  12.3059577  61.0055136  40.8750471
   9.2328440  60.0101720  40.7524044   8.8946952  59.8942785  39.8644578
  10.1018208  59.6092885  40.7325050   5.0915256  61.8637197  36.7420935
   4.5280121  61.7727134  35.9737222   4.9767651  61.0437101  37.2223427
   9.7148223  61.1636572  46.7110249   9.7036864  60.7689370  45.8390753
   9.8768863  60.4302645  47.3044021   2.6379688  63.3588388  39.5805155
   3.4300980  63.0179213  39.1651454   2.8776338  63.4683363  40.5007308
  10.6714815  65.5308164  32.0535399  10.0202794  66.1162245  31.6669413
  11.4659177  66.0614359  32.1130437   4.5970442  62.6197302  32.4522534
   5.3701318  62.0726289  32.3135410   4.9495841  63.4841551  32.6636995
   6.4355484  63.9473684  45.6589433   6.1445350  64.8519315  45.5436099
   7.0712469  63.9890211  46.3733503   7.3611691  61.3250532  42.2490793
   7.9575263  61.1006555  41.5347756   7.4186663  60.5835278  42.8516241
   6.9336720  58.7789968  30.0840984   7.1862240  58.2571489  29.3224447
   5.9961279  58.6156113  30.1867667  11.9780002  57.7825746  37.8915727
  12.7643092  57.3645169  37.5406144  12.2418707  58.6871838  38.0597375
  12.1490080  63.2198596  32.5904384  11.5135913  63.2933223  33.3025288
  11.8187486  63.8092195  31.9123463  17.3788430  57.7200979  38.7948705
  18.1113601  57.1500196  39.0286535  16.6227785  57.3322580  39.2355211
   6.6533008  60.6818074  32.2865359   6.5369266  60.0062977  32.9546443
   6.7635268  60.1950448  31.4697512   8.9964549  60.1428221  35.9912048
   8.6322756  59.6158842  36.7024969   9.8531665  59.7526690  35.8178533
  14.9013850  51.4322553  43.2543314  14.5697175  52.3017964  43.0304529
  14.3059463  51.1158837  43.9337344   8.6370036  55.1718120  30.9873396
   8.8044439  56.0398357  31.3543867   8.4467205  55.3345402  30.0634686
  11.3945369  63.6335099  42.6539227  11.0946092  64.5360138  42.5455034
  11.0496429  63.3667283  43.5060380   4.8457851  60.0848896  38.6875931
   3.9208347  59.9525110  38.8953623   5.0942264  60.8643115  39.1845874
  14.7942513  56.1517640  40.3336664  13.8859391  56.0833048  40.0395425
  14.7430109  56.6289585  41.1618490   8.6159257  57.6275778  31.9720063
   8.4958882  58.0732829  32.8105544   7.9211845  57.9761096  31.4133601
   2.2066662  59.7282170  39.5219720   2.3359043  59.9816649  40.4359132
   1.5264113  60.3209878  39.2024375   6.3766149  70.3979420  35.6210194
   6.2990179  71.3487245  35.6998675   5.7727793  70.0525292  36.2785121
   8.8683379  57.5707285  48.2771561   8.0916713  58.1301205  48.2674426
   9.5073942  58.0564068  48.7986432  16.6604160  54.3534078  42.1114538
  16.0178540  54.6466611  41.4654333  16.1559088  54.2386998  42.9167735
  14.3144323  58.0997251  32.8000397  15.2262179  58.3324638  32.6248095
  13.8053970  58.6834295  32.2375476   7.1229751  60.3792739  47.8389528
   7.8644436  60.9177782  47.5624352   6.4166737  61.0059027  47.9961080
  12.5985091  62.5221879  46.4361690  13.0068447  62.0804290  45.6916322
  11.8762352  61.9474507  46.6895883   8.9516161  57.4594486  43.8095247
   9.7977356  57.8833899  43.9529896   8.8914799  56.8028110  44.5033810
  12.9213906  63.0823070  40.1913979  12.2922768  63.2468784  39.4890047
  12.5339568  63.4964679  40.9624943  16.8003137  64.0177507  37.5458343
  16.1154176  64.3976409  36.9955376  16.8846987  64.6272834  38.2790290
  12.1015606  55.1198854  45.4676420  11.8576538  55.8740915  44.9310696
  12.3775537  55.4984202  46.3023668  14.0554069  61.6637466  44.1453686
  14.2670964  62.3069226  43.4688067  14.0083817  60.8299783  43.6775616
  11.6580298  54.2755287  41.0490258  10.7964777  54.5736541  41.3406996
  11.6842733  54.4925686  40.1171291   8.4741867  62.8197478  37.4564064
   8.9380213  63.0985181  36.6668686   8.2098666  61.9180922  37.2737155
   5.3665949  62.3668959  40.3943827   5.9367306  62.7956228  39.7561312
   5.9574060  62.0851544  41.0928013   7.4110754  58.9420630  34.2653629
   8.1134797  59.3941674  34.7327555   7.0791382  58.3004449  34.8933522
   5.8591115  57.5332387  48.6404838   5.2289776  58.2148668  48.8740235
   5.7527203  57.4215468  47.6957977  15.1699897  64.5409422  42.3176043
  15.9917341  64.1389609  42.0358725  15.1662300  64.4377656  43.2692159
   3.1050833  57.5648762  36.5254239   2.3081996  57.6767456  37.0437735
   2.8776425  57.9035414  35.6595130   8.9356500  64.0893465  44.4736754
   9.0000933  64.5513872  45.3094926   8.2267424  63.4590830  44.6019064
  23.2605890  60.8848170  38.6661015  22.5069598  60.3155568  38.5105019
  23.3953431  60.8510835  39.6131650   8.6504518  65.7561573  34.3415734
   8.5150193  66.6013108  34.7700582   9.1914331  65.9580850  33.5781668
   5.1371858  51.8353153  51.0030089   4.7438803  51.2819351  51.6777734
   5.9537998  52.1463731  51.3936607   2.1033916  63.2737011  34.9143659
   2.6158436  64.0680261  35.0649224   2.7556628  62.5763301  34.8477261
   3.9128800  66.3902767  36.9966412   4.0895429  67.3120732  36.8087396
   4.7085634  66.0761186  37.4260792   8.0539819  53.2511032  48.5950346
   8.7949532  53.8518185  48.5154808   8.2857742  52.5088669  48.0368389
   3.1981157  58.4367399  46.8728576   3.0834672  57.5352656  47.1735675
   2.3425675  58.6831096  46.5213392  10.2772995  66.3785139  48.4716076
   9.8336849  65.5921518  48.1536981  10.9390208  66.5664290  47.8059967
   5.0360116  67.9080941  42.9976755   5.5867541  67.7798004  42.2253749
   4.1971592  68.2075830  42.6471648  12.3754233  66.6587939  46.4997478
  12.3572708  67.4796820  46.0077747  13.2974153  66.5342014  46.7247619
   8.8327287  64.1732069  47.3420986   9.3655624  63.4120357  47.1120294
   8.3041368  63.8805720  48.0845140  11.9996982  49.2792135  42.8714628
  11.6561251  50.1693776  42.7953738  12.3675944  49.0893792  42.0084213
  11.9647264  59.2700746  31.3787063  11.4493888  60.0405350  31.6175450
  11.6924573  58.5965882  32.0020124   9.5494375  54.1150446  36.4372301
   8.6935972  53.7257297  36.2577940   9.9621327  54.1942407  35.5772087
  11.0793522  51.6496790  40.8363861  10.5758318  51.6126925  40.0231666
  11.3724129  52.5589532  40.8960518   7.3236408  51.7335519  39.8430043
   8.1889405  51.5378328  39.4835932   7.3913917  51.5045871  40.7699399
  16.9381539  62.0233100  33.3140236  16.1610981  61.6844260  32.8695398
  17.6173020  62.0285724  32.6395201  11.7533568  57.1427838  33.2046844
  11.4483703  57.4573987  34.0556987  12.7064010  57.2209258  33.2474177
  10.1979999  63.3018061  34.8539798   9.6701361  62.5670821  34.5413035
   9.6967502  64.0792737  34.6079766  15.1772845  61.4967082  39.9706844
  14.5196520  62.1866343  40.0586973  15.9813245  61.8863514  40.3140831
   4.9298727  53.9637727  37.2146409   5.5042479  53.7412909  36.4819602
   5.5169709  54.0326422  37.9675011  13.9878304  59.8511454  38.0210786
  14.5010186  60.4841446  38.5232496  14.6379528  59.2512650  37.6554146
   5.2568314  55.9942188  31.2342295   4.4205626  56.3316875  31.5551569
   5.1173084  55.8591168  30.2969432   7.2321395  50.8378976  35.9421479
   6.5785807  50.5227993  35.3178094   7.1901869  50.2154717  36.6681302
   8.3432600  61.1198271  27.8574771   7.4359661  60.8887525  28.0565920
   8.8403632  60.3235891  28.0448753  11.2500678  69.8295779  30.7771457
  10.5762377  70.1327475  31.3856415  11.6366500  70.6324859  30.4276914
  10.4659135  57.3260910  40.2669127   9.5481696  57.5475857  40.1090815
  10.8819279  57.4007220  39.4080834  11.2494183  58.7252326  35.3971807
  11.9966002  59.2373723  35.0878929  11.5185772  58.4036378  36.2576200
   9.5220833  61.2210866  32.3798761   8.6132052  60.9369899  32.4771231
   9.5515917  61.6409945  31.5202068  14.7540100  64.8317456  36.1489929
  14.3002428  63.9908366  36.2055119  14.1234067  65.4678854  36.4864709
  13.6973020  55.7609442  37.3790596  12.9595777  55.2486828  37.7100839
  13.9499794  55.3209823  36.5673873  13.1973040  66.6693952  37.0839747
  13.4896014  67.2299010  36.3652112  13.7071660  66.9622513  37.8392906
  13.7984647  48.5385694  37.9732365  14.1043524  47.6783057  37.6858280
  14.5237252  49.1303314  37.7731359   8.0705727  58.8339487  38.4808556
   8.1254337  57.8813323  38.4051033   7.2596929  58.9898926  38.9649855
   9.2196921  62.7619610  29.7186840   8.7816351  62.0455469  29.2592477
   9.9607362  62.9895725  29.1571931   6.0098087  57.4516547  36.2398935
   5.1965953  57.7510717  36.6464127   6.5057081  57.0572235  36.9573418
   8.1606665  67.4474304  38.1733200   8.1182844  67.6735150  37.2441732
   9.0769364  67.2137678  38.3219001  11.6072299  57.9158371  45.0713829
  11.9621686  58.1429844  45.9308295  12.2544430  58.2476748  44.4491084
  17.3370036  61.0376807  35.7763158  17.1987934  61.2278403  34.8484347
  16.9806254  61.7996190  36.2331209   5.5012162  55.0234902  41.8560170
   6.1411541  54.8823661  41.1583134   4.6689692  54.7369415  41.4798772
  17.3639415  63.1053334  40.7874430  17.7975922  63.0128623  41.6357484
  18.0770996  63.0810834  40.1494446   6.2772466  64.3237333  37.9695163
   7.0713064  63.8287653  37.7677738   5.5664158  63.7955196  37.6062868
  11.0967310  66.7055428  42.3207530  11.1504332  67.2746364  43.0885246
  10.2282092  66.8757313  41.9561567   2.5855229  58.4680414  34.0454915
   1.6552817  58.4064870  34.2624878   2.6812701  57.9456367  33.2491557
   2.5040778  54.9935227  36.6333157   2.7647595  55.9080560  36.5242318
   3.3257951  54.5259670  36.7829770   3.9765704  56.4072984  43.8031982
   4.6488757  56.1990346  43.1544630   3.1495490  56.2095070  43.3637214
  18.2254965  63.1477035  43.3207315  18.4190855  64.0522845  43.5666590
  18.1255583  62.6884454  44.1545900   9.8791276  53.0334925  45.8197642
   9.2319191  53.7324875  45.7262119  10.6492291  53.4671069  46.1873891
  13.2870073  63.2983777  48.8948196  13.1355580  63.0694329  47.9778279
  13.2774753  64.2554379  48.9079541  10.0555410  60.8715690  43.8794462
  10.9847470  61.0226850  43.7063429   9.6346440  60.9599711  43.0243109
   8.8543742  64.8966355  41.6493000   8.7154827  64.5285139  42.5218938
   8.0658338  65.4113994  41.4776958   9.4491894  69.9975451  32.9918536
   9.6243649  69.5263494  33.8064159   8.7624682  70.6241217  33.2199797
  10.4048957  64.2747957  39.0381838  10.0698789  64.2348727  39.9339487
   9.9052902  63.6092673  38.5652248   4.3793201  59.6815587  44.5634419
   4.2412999  58.9495826  45.1645958   5.2898124  59.5924487  44.2818606
  13.3408148  61.6203992  29.3118897  12.7237319  60.8950820  29.2151950
  12.8724637  62.3813352  28.9685972   7.0075501  59.3935547  44.0518098
   7.7175120  58.7528739  44.0104717   6.9644810  59.6448441  44.9744279
  14.9962280  66.3302900  46.9724678  14.9374826  65.6462120  46.3055261
  15.3981799  67.0721890  46.5205304   5.7204435  56.3800764  45.8713738
   5.1841792  55.9291503  46.5235334   5.1321144  56.5146673  45.1284202
   4.0152979  73.1464814  39.7658397   4.2549577  73.7783338  40.4437415
   3.1722175  72.7952854  40.0523756   5.1306694  55.8389416  28.4340202
   4.2536161  55.7178217  28.0702448   5.6064447  55.0475494  28.1819090
  14.9979687  64.2942484  45.2038657  14.1106466  63.9568406  45.3265056
  15.5678238  63.5625515  45.4407423   1.4543557  55.5156772  42.9566732
   1.3701745  54.9082442  42.2217142   0.6326263  56.0065790  42.9576229
   8.5280841  68.9543936  42.1699900   8.4551012  69.7598908  42.6819205
   8.0858234  69.1535902  41.3447922   8.3170620  68.1915706  35.6802722
   7.5338142  68.7337386  35.7740947   9.0163366  68.7089686  36.0796963
  11.6267271  54.0010336  38.3236927  12.1235970  53.2480298  38.0037998
  10.8554252  54.0374652  37.7580137  19.4797028  59.7050701  39.9655219
  19.4686904  60.5875417  39.5949152  18.6114407  59.3522252  39.7709756
  10.9879524  68.8530770  44.3258059  11.7007497  69.4878235  44.2533961
  10.4969553  68.9494636  43.5098061  12.7097051  62.7582023  35.8975351
  11.7753330  62.8783485  35.7280055  12.8873720  61.8554490  35.6335361
   8.2102239  56.1427719  38.0508612   7.8400027  55.5898759  38.7389518
   8.7061332  55.5385852  37.4983612  16.0969603  58.5999342  36.4325385
  16.5630055  59.4327334  36.3585688  16.5477103  58.1344324  37.1370643
   6.0391438  66.6025214  45.1463630   6.7400897  67.2361697  45.2993024
   5.5686553  66.9439945  44.3859269  14.1645834  64.9443163  33.4311537
  14.4405678  64.8299758  34.3405411  13.2950332  64.5460648  33.3923710
  14.0686265  50.9679929  40.4716286  13.1549345  51.1984156  40.6398493
  14.4979367  51.0518373  41.3230319  13.8392724  59.1569821  42.9716180
  13.1864174  59.4045729  42.3168633  14.2173104  58.3433959  42.6378658
  10.7999898  69.1929514  37.0744351  10.9822292  68.3751170  37.5372103
  11.6232884  69.4097207  36.6369241  11.1342063  68.1197699  34.3359399
  11.6629830  67.6090154  33.7229561  11.3970283  67.8040230  35.2004932
   9.8880297  59.8989632  49.4582217   9.2120934  59.7983762  50.1284593
  10.7107931  59.7428846  49.9218215   1.6359156  66.1361569  42.0794733
   2.2212593  65.3905257  42.2122637   1.4383994  66.4465525  42.9631397
   4.4897811  69.1712816  37.0957175   3.8208186  69.6558944  36.6121215
   4.3510681  69.4182037  38.0100554   8.6303080  71.2056560  43.6939833
   9.1821388  71.3688181  44.4588919   8.9709273  71.7960997  43.0219858
   3.6067573  53.5531709  44.2961718   3.6708899  54.4146540  43.8839116
   3.5434693  52.9405711  43.5634077   3.0819845  55.6254842  47.9434752
   3.7091884  55.2431919  48.5572277   2.2247764  55.4069044  48.3090445
  13.4813954  66.0317817  49.5488488  14.0253858  66.6447775  49.0543443
  12.9000799  66.5897396  50.0655501  11.7671467  69.1538535  40.6803516
  11.6422606  68.3528275  40.1714461  12.4250558  69.6484729  40.1917486
   3.3879635  55.5087268  39.8580656   2.6666221  56.1223235  39.7188129
   4.1772891  56.0445032  39.7797302  13.8306375  66.9547555  42.3083066
  12.8836711  66.8352906  42.2361392  14.1789148  66.0670053  42.3909327
   6.1905949  52.8441694  46.1321308   6.7140351  53.0903991  46.8947617
   5.9718282  53.6761729  45.7124445   1.5873230  55.1145369  33.9992432
   1.2585936  54.2342748  33.8167538   1.9412600  55.0593037  34.8868822
  10.8352809  66.7500271  38.5087418  10.6877771  65.8216979  38.6894988
  11.6606302  66.7720362  38.0244493   4.7015053  55.4018339  34.3667910
   5.0411125  55.9304260  33.6446518   5.1487173  55.7398745  35.1426477
  14.4386931  67.5728830  39.5952291  15.3633478  67.3671692  39.4576742
  14.2702234  67.3245231  40.5041632   7.3958494  53.7855389  43.8170978
   7.0555314  52.9863202  44.2191658   6.6897500  54.0857100  43.2447811
   8.0474966  50.8704702  42.2698301   8.8701035  50.3965180  42.1477191
   8.2913029  51.6495185  42.7696987   6.6883200  53.8992960  32.5661203
   7.4091563  54.2774213  32.0624920   6.0648504  54.6181837  32.6696181
  10.8314323  54.6038109  33.5019535  11.0477937  55.4862747  33.2008363
  10.3508390  54.2124323  32.7725177   5.5713544  57.5623822  40.0790280
   5.4258125  57.8764125  40.9714561   5.0938748  58.1808723  39.5261178
   7.4309927  54.5526370  40.1271169   7.4171496  53.6567464  39.7903467
   8.1482355  54.5597034  40.7609455   9.2836058  54.9863711  42.1724297
   9.0253836  55.9080781  42.1708627   8.7521098  54.5894145  42.8624761
  14.2282247  68.0914498  34.9514382  14.4019124  67.5260920  34.1988235
  14.7211138  68.8915393  34.7693872   6.8346823  53.4340751  35.3958739
   6.9562734  52.5057397  35.5949627   6.5448866  53.4479437  34.4837055
   9.7038014  51.1195661  38.5325459   9.7259710  51.1834994  37.5777439
  10.1206073  50.2800170  38.7265965  20.0821638  60.8550921  36.5704682
  20.5252784  60.1058246  36.1723805  19.2048148  60.8461057  36.1878414
  15.2157419  67.4081262  32.0511280  15.9108324  68.0287955  32.2698595
  15.5580569  66.5576613  32.3263658  17.1148842  64.8580968  33.5798611
  17.6400166  65.1968240  32.8547931  17.0271195  63.9227983  33.3961746
   8.7768891  68.7715041  45.7088488   9.0856017  68.5264188  46.5811187
   9.5744373  68.9761680  45.2207358   8.7989503  70.9252951  37.9393864
   8.3594493  70.4329330  38.6326721   9.5497620  70.3825919  37.6985940
   1.2781842  67.1164492  37.9418492   2.1039862  66.8168264  37.5617136
   0.9275894  66.3472114  38.3908281   6.2463375  66.4690960  40.0116166
   5.6243385  65.8061665  39.7118394   6.9168242  66.4952092  39.3289814
   6.3187903  54.9472748  49.6048672   6.3676058  55.8234871  49.2226442
   6.8610417  54.4050141  49.0320315  16.8042748  65.4913871  48.8849809
  16.0138292  65.4738010  48.3454308  16.5676103  66.0302165  49.6398846
  16.9240623  62.3406338  46.1982538  16.9738628  62.1756345  47.1398060
  16.8154547  61.4733597  45.8080418   5.8076882  65.0194883  33.4874627
   5.9565003  65.7030348  32.8341299   6.6143326  64.9999973  34.0024082
  14.2144386  58.3237266  47.5141844  15.1154249  58.1843730  47.2225842
  14.2892360  58.4891720  48.4540022   8.5487191  55.7004120  46.3595031
   7.6790501  55.9937686  46.0877619   8.7846672  56.2844565  47.0802294
  18.4258820  64.7603279  46.4424559  18.1343629  65.1233260  47.2788020
  17.8130952  64.0470287  46.2637891  19.6254503  62.3256159  38.9627129
  20.4601394  62.7645963  39.1264690  19.7613631  61.8494812  38.1435375
  16.6746009  59.8835894  44.9104617  17.1500130  60.0763540  44.1023469
  15.7511574  59.9395080  44.6648001   3.5629515  61.0460061  34.4935695
   3.3175557  60.1422391  34.6915906   3.7325430  61.0477211  33.5515173
  11.2526225  51.9183737  43.8760451  11.7708169  52.6544764  43.5506940
  10.8981358  52.2247731  44.7107210   2.8325163  56.7788419  31.9921857
   2.1394408  56.8532773  31.3361893   2.5876915  56.0148762  32.5143374
  11.5038819  48.3384020  39.3961348  11.7840573  47.6707209  40.0221774
  12.2889426  48.5313115  38.8836011   9.3072288  67.5143014  30.9586374
   8.7346255  68.1333201  30.5056846   9.8805081  68.0642375  31.4926296
  15.3747678  56.7601654  43.1432923  16.3265100  56.8599751  43.1645147
  15.2051128  55.9679922  43.6531007  13.3962057  53.8457237  43.3292324
  12.8011989  54.1262250  42.6338812  13.1111754  54.3351138  44.1009065
  12.5269547  67.7980164  32.0894956  13.4600221  67.7325726  32.2927832
  12.4392760  68.6336431  31.6309489  15.1557564  67.1146034  29.0498904
  15.0771196  66.7805898  29.9434662  15.9767231  67.6067802  29.0490376
  17.8535755  59.9807774  42.2575222  17.8212075  59.0423774  42.4434906
  18.4636379  60.0591810  41.5241047   9.6919086  58.8503826  28.3002426
  10.6378191  58.7210035  28.3690844   9.3133331  58.1118488  28.7771855
  18.0030244  56.7718817  42.3033506  17.4869292  55.9877274  42.1163434
  18.8870192  56.4437534  42.4680025  15.6640971  50.5159833  38.2629318
  15.4665792  50.2074921  39.1472650  16.2740676  51.2421471  38.3927248
  23.6712305  61.0423780  41.3981259  24.4015694  60.7809068  41.9588963
  23.0619251  60.3052502  41.4383327  21.7527602  59.1831643  41.9955710
  21.0260766  59.0487608  41.3872202  21.3374889  59.4908472  42.8012428
   9.5757779  62.9021573  49.7603083  10.4960788  63.0800172  49.9543130
   9.5407362  61.9577618  49.6082783   7.8762003  56.7753803  28.2357312
   6.9693459  56.4786916  28.3120025   8.1537984  56.4783621  27.3691598
   2.5719851  60.8122607  42.4025865   2.7905861  61.7439715  42.4213898
   2.9845625  60.4530582  43.1880668   9.4924069  51.3190693  34.3901553
   8.6824797  50.9737778  34.7656799  10.1808486  51.0098236  34.9789165
  11.4214617  50.3968739  36.0125850  11.9745656  50.8164193  36.6715873
  11.6584704  49.4704488  36.0548806   7.4447717  56.3855813  51.7928614
   7.3444443  57.3350170  51.7240705   7.2269259  56.0574052  50.9204684
   6.6460788  53.6340738  28.3769291   7.5079952  53.9595636  28.6365108
   6.8311132  52.8472234  27.8642357  14.7993424  52.5069265  35.5204514
  14.2192093  53.1654069  35.1382566  14.5329357  51.6846609  35.1091931
  13.2496991  51.9074322  37.7225834  13.7496769  52.0190857  36.9140153
  13.8932599  51.6035375  38.3626643   7.3078987  59.8152952  50.6093675
   6.8246068  60.6153312  50.8157564   7.3939926  59.8260897  49.6561119
   3.2352324  63.7057487  42.6462109   4.1895578  63.6741429  42.5792041
   3.0364848  63.2448110  43.4612335   3.8251706  62.2758603  45.2132907
   4.6444595  62.7702681  45.2367744   4.0988514  61.3590571  45.1850474
  13.5818302  54.6669355  34.5760862  12.6944157  54.9519006  34.3581057
  13.9972292  54.5063118  33.7288139  16.9332839  54.6915876  38.2915201
  17.7093229  55.1812328  38.5639818  16.2080973  55.1173930  38.7487071
  19.3705397  55.4043495  39.3489142  19.9649888  55.1639231  38.6382450
  19.4431981  54.6850626  39.9762678   1.5902553  69.2477106  39.6632307
   1.4557021  68.4877507  39.0970305   1.1734615  69.9718006  39.1961096
  12.7261516  64.4314030  28.6708882  13.4297366  64.6364032  29.2866538
  12.0024165  64.9990792  28.9357966  13.5559326  60.1823891  34.7911152
  13.4994528  60.6392442  33.9518785  14.1087669  59.4214575  34.6133995
  17.3664132  55.9713623  35.6161272  17.1101066  55.5710258  36.4469479
  16.7417000  56.6857417  35.4911411  21.6776470  58.7109696  38.1232563
  21.1176028  58.7802885  38.8964125  21.0719973  58.5350681  37.4032059
   4.7471679  70.1446423  39.8750749   4.6304063  71.0891856  39.7729440
   3.9264125  69.8419985  40.2636549  14.6348213  64.8696559  30.7207342
  15.4693817  64.4377757  30.5384817  14.4732556  64.6978573  31.6484237
  14.2894105  61.3728672  32.0863681  14.2342909  61.2072944  31.1452126
  13.6640161  62.0804705  32.2425871  11.6040013  63.6777584  51.4117244
  12.4731172  63.8518236  51.0503879  11.1246764  64.4972001  51.2892974
   7.5990231  50.8736781  31.6649000   7.5868901  51.8178621  31.8217271
   8.4913653  50.6906927  31.3708461   5.7726193  70.7974685  43.0906678
   6.6753440  70.8298295  43.4073173   5.5463563  69.8675136  43.1053014
   7.5279795  69.5505672  39.7516757   6.5775426  69.5507533  39.6381129
   7.8312281  68.8038406  39.2352791  11.4142350  47.4679558  35.9194937
  10.6474746  46.9138044  36.0651619  11.8253055  47.5401427  36.7809088
   3.4184111  53.7564354  50.0100118   4.2815573  53.4001158  50.2203442
   2.8449522  53.4178248  50.6975522  23.2632488  75.3866210  40.8162519
  23.9010898  75.2672957  40.1125859  23.1453331  76.3347054  40.8750471
  20.0722195  75.3393638  40.7524044  19.7340706  75.2234703  39.8644578
  20.9411963  74.9384803  40.7325050  15.9309010  77.1929114  36.7420935
  15.3673876  77.1019051  35.9737222  15.8161405  76.3729019  37.2223427
  20.5541978  76.4928490  46.7110249  20.5430618  76.0981288  45.8390753
  20.7162617  75.7594562  47.3044021  13.4773442  78.6880306  39.5805155
  14.2694734  78.3471131  39.1651454  13.7170092  78.7975281  40.5007308
  21.5108569  80.8600082  32.0535399  20.8596549  81.4454163  31.6669413
  22.3052932  81.3906277  32.1130437  15.4364196  77.9489219  32.4522534
  16.2095072  77.4018206  32.3135410  15.7889595  78.8133469  32.6636995
  17.2749239  79.2765602  45.6589433  16.9839105  80.1811232  45.5436099
  17.9106223  79.3182129  46.3733503  18.2005446  76.6542450  42.2490793
  18.7969018  76.4298472  41.5347756  18.2580417  75.9127196  42.8516241
  17.7730474  74.1081885  30.0840984  18.0255995  73.5863407  29.3224447
  16.8355033  73.9448031  30.1867667  22.8173757  73.1117664  37.8915727
  23.6036846  72.6937087  37.5406144  23.0812461  74.0163756  38.0597375
  22.9883834  78.5490514  32.5904384  22.3529667  78.6225141  33.3025288
  22.6581241  79.1384113  31.9123463  28.2182184  73.0492897  38.7948705
  28.9507356  72.4792114  39.0286535  27.4621540  72.6614497  39.2355211
  17.4926763  76.0109991  32.2865359  17.3763021  75.3354895  32.9546443
  17.6029023  75.5242365  31.4697512  19.8358304  75.4720138  35.9912048
  19.4716511  74.9450759  36.7024969  20.6925420  75.0818608  35.8178533
  25.7407604  66.7614471  43.2543314  25.4090929  67.6309882  43.0304529
  25.1453218  66.4450755  43.9337344  19.4763791  70.5010038  30.9873396
  19.6438193  71.3690275  31.3543867  19.2860960  70.6637320  30.0634686
  22.2339124  78.9627017  42.6539227  21.9339847  79.8652056  42.5455034
  21.8890183  78.6959200  43.5060380  15.6851605  75.4140814  38.6875931
  14.7602102  75.2817028  38.8953623  15.9336019  76.1935033  39.1845874
  25.6336268  71.4809557  40.3336664  24.7253145  71.4124966  40.0395425
  25.5823863  71.9581502  41.1618490  19.4553012  72.9567696  31.9720063
  19.3352637  73.4024746  32.8105544  18.7605600  73.3053013  31.4133601
  13.0460416  75.0574087  39.5219720  13.1752798  75.3108566  40.4359132
  12.3657868  75.6501795  39.2024375  17.2159904  85.7271337  35.6210194
  17.1383933  86.6779163  35.6998675  16.6121547  85.3817210  36.2785121
  19.7077133  72.8999203  48.2771561  18.9310468  73.4593123  48.2674426
  20.3467697  73.3855986  48.7986432  27.4997914  69.6825996  42.1114538
  26.8572294  69.9758529  41.4654333  26.9952843  69.5678916  42.9167735
  25.1538078  73.4289169  32.8000397  26.0655934  73.6616556  32.6248095
  24.6447725  74.0126213  32.2375476  17.9623506  75.7084656  47.8389528
  18.7038190  76.2469700  47.5624352  17.2560491  76.3350945  47.9961080
  23.4378845  77.8513797  46.4361690  23.8462201  77.4096207  45.6916322
  22.7156107  77.2766424  46.6895883  19.7909915  72.7886403  43.8095247
  20.6371111  73.2125817  43.9529896  19.7308553  72.1320028  44.5033810
  23.7607660  78.4114987  40.1913979  23.1316523  78.5760701  39.4890047
  23.3733322  78.8256597  40.9624943  27.6396892  79.3469425  37.5458343
  26.9547930  79.7268327  36.9955376  27.7240741  79.9564752  38.2790290
  22.9409361  70.4490772  45.4676420  22.6970293  71.2032832  44.9310696
  23.2169291  70.8276119  46.3023668  24.8947824  76.9929384  44.1453686
  25.1064719  77.6361144  43.4688067  24.8477572  76.1591701  43.6775616
  22.4974053  69.6047205  41.0490258  21.6358532  69.9028458  41.3406996
  22.5236487  69.8217604  40.1171291  19.3135622  78.1489395  37.4564064
  19.7773967  78.4277098  36.6668686  19.0492420  77.2472840  37.2737155
  16.2059703  77.6960877  40.3943827  16.7761060  78.1248145  39.7561312
  16.7967815  77.4143462  41.0928013  18.2504508  74.2712548  34.2653629
  18.9528551  74.7233591  34.7327555  17.9185136  73.6296367  34.8933522
  16.6984870  72.8624304  48.6404838  16.0683530  73.5440585  48.8740235
  16.5920957  72.7507386  47.6957977  11.9929842  72.5296100  39.5670763
  11.2028896  72.7853629  39.0910873  12.4841089  73.3444438  39.6722803
  26.0093652  79.8701340  42.3176043  26.8311095  79.4681527  42.0358725
  26.0056054  79.7669574  43.2692159  13.9444587  72.8940680  36.5254239
  13.1475751  73.0059374  37.0437735  13.7170180  73.2327332  35.6595130
  19.7750255  79.4185383  44.4736754  19.8394687  79.8805790  45.3094926
  19.0661179  78.7882748  44.6019064  10.2767545  72.7826591  41.9985753
  10.5275583  73.6673601  42.2643329  10.8127093  72.6031192  41.2260845
  34.0999645  76.2140088  38.6661015  33.3463353  75.6447486  38.5105019
  34.2347186  76.1802753  39.6131650  19.4898273  81.0853490  34.3415734
  19.3543947  81.9305026  34.7700582  20.0308085  81.2872768  33.5781668
  15.9765612  67.1645070  51.0030089  15.5832558  66.6111269  51.6777734
  16.7931753  67.4755649  51.3936607  12.9427670  78.6028928  34.9143659
  13.4552191  79.3972179  35.0649224  13.5950383  77.9055219  34.8477261
  14.7522555  81.7194685  36.9966412  14.9289183  82.6412649  36.8087396
  15.5479388  81.4053104  37.4260792  18.8933573  68.5802949  48.5950346
  19.6343287  69.1810102  48.5154808  19.1251496  67.8380587  48.0368389
  14.0374911  73.7659317  46.8728576  13.9228426  72.8644574  47.1735675
  13.1819429  74.0123013  46.5213392  21.1166749  81.7077057  48.4716076
  20.6730603  80.9213435  48.1536981  21.7783963  81.8956207  47.8059967
  15.8753870  83.2372858  42.9976755  16.4261295  83.1089922  42.2253749
  15.0365346  83.5367747  42.6471648  23.2147987  81.9879857  46.4997478
  23.1966462  82.8088738  46.0077747  24.1367907  81.8633932  46.7247619
  19.6721041  79.5023986  47.3420986  20.2049378  78.7412274  47.1120294
  19.1435122  79.2097638  48.0845140  22.8390736  64.6084052  42.8714628
  22.4955006  65.4985694  42.7953738  23.2069699  64.4185710  42.0084213
  10.9076587  76.9317583  35.6903230  11.7451809  77.3414591  35.4736938
  11.0854854  75.9917025  35.6603424  22.8041019  74.5992663  31.3787063
  22.2887642  75.3697268  31.6175450  22.5318327  73.9257800  32.0020124
  20.3888130  69.4442364  36.4372301  19.5329726  69.0549215  36.2577940
  20.8015082  69.5234325  35.5772087  21.9187277  66.9788707  40.8363861
  21.4152072  66.9418843  40.0231666  22.2117883  67.8881450  40.8960518
  18.1630162  67.0627437  39.8430043  19.0283159  66.8670246  39.4835932
  18.2307671  66.8337789  40.7699399  27.7775293  77.3525018  33.3140236
  27.0004736  77.0136178  32.8695398  28.4566774  77.3577641  32.6395201
  22.5927322  72.4719755  33.2046844  22.2877458  72.7865905  34.0556987
  23.5457764  72.5501175  33.2474177  21.0373754  78.6309979  34.8539798
  20.5095115  77.8962738  34.5413035  20.5361257  79.4084655  34.6079766
  26.0166600  76.8258999  39.9706844  25.3590274  77.5158261  40.0586973
  26.8206999  77.2155431  40.3140831  15.7692482  69.2929645  37.2146409
  16.3436233  69.0704827  36.4819602  16.3563464  69.3618340  37.9675011
  24.8272059  75.1803372  38.0210786  25.3403940  75.8133364  38.5232496
  25.4773283  74.5804567  37.6554146  16.0962069  71.3234106  31.2342295
  15.2599381  71.6608793  31.5551569  15.9566838  71.1883086  30.2969432
  18.0715149  66.1670894  35.9421479  17.4179562  65.8519911  35.3178094
  18.0295623  65.5446634  36.6681302  19.1826354  76.4490189  27.8574771
  18.2753416  76.2179442  28.0565920  19.6797386  75.6527808  28.0448753
  22.0894433  85.1587696  30.7771457  21.4156132  85.4619393  31.3856415
  22.4760255  85.9616777  30.4276914  21.3052890  72.6552828  40.2669127
  20.3875451  72.8767775  40.1090815  21.7213033  72.7299138  39.4080834
  22.0887937  74.0544243  35.3971807  22.8359756  74.5665640  35.0878929
  22.3579527  73.7328296  36.2576200  20.3614588  76.5502784  32.3798761
  19.4525807  76.2661817  32.4771231  20.3909671  76.9701862  31.5202068
  25.5933855  80.1609373  36.1489929  25.1396182  79.3200283  36.2055119
  24.9627822  80.7970772  36.4864709  24.5366775  71.0901359  37.3790596
  23.7989531  70.5778746  37.7100839  24.7893548  70.6501741  36.5673873
  24.0366794  81.9985870  37.0839747  24.3289769  82.5590927  36.3652112
  24.5465415  82.2914431  37.8392906  24.6378402  63.8677611  37.9732365
  24.9437279  63.0074975  37.6858280  25.3631007  64.4595232  37.7731359
  10.9302758  74.2708298  36.3613963  10.7327158  73.6777659  35.6365030
  10.3749422  73.9660508  37.0789902  18.9099482  74.1631405  38.4808556
  18.9648091  73.2105241  38.4051033  18.0990684  74.3190844  38.9649855
  20.0590675  78.0911528  29.7186840  19.6210105  77.3747387  29.2592477
  20.8001116  78.3187642  29.1571931  16.8491841  72.7808464  36.2398935
  16.0359707  73.0802635  36.6464127  17.3450836  72.3864153  36.9573418
  19.0000419  82.7766221  38.1733200  18.9576598  83.0027067  37.2441732
  19.9163118  82.5429596  38.3219001  22.4466053  73.2450289  45.0713829
  22.8015441  73.4721762  45.9308295  23.0938184  73.5768666  44.4491084
  28.1763790  76.3668725  35.7763158  28.0381689  76.5570321  34.8484347
  27.8200009  77.1288107  36.2331209  16.3405916  70.3526820  41.8560170
  16.9805296  70.2115579  41.1583134  15.5083447  70.0661333  41.4798772
  28.2033170  78.4345252  40.7874430  28.6369676  78.3420541  41.6357484
  28.9164750  78.4102752  40.1494446  17.1166220  79.6529250  37.9695163
  17.9106819  79.1579570  37.7677738  16.4057913  79.1247113  37.6062868
  21.9361065  82.0347346  42.3207530  21.9898087  82.6038282  43.0885246
  21.0675846  82.2049231  41.9561567  13.4248984  73.7972332  34.0454915
  12.4946572  73.7356787  34.2624878  13.5206456  73.2748285  33.2491557
  13.3434533  70.3227145  36.6333157  13.6041350  71.2372478  36.5242318
  14.1651705  69.8551587  36.7829770  14.8159458  71.7364902  43.8031982
  15.4882511  71.5282264  43.1544630  13.9889245  71.5386988  43.3637214
  29.0648719  78.4768952  43.3207315  29.2584609  79.3814763  43.5666590
  28.9649337  78.0176371  44.1545900  20.7185030  68.3626843  45.8197642
  20.0712945  69.0616793  45.7262119  21.4886045  68.7962987  46.1873891
  24.1263828  78.6275695  48.8948196  23.9749334  78.3986247  47.9778279
  24.1168507  79.5846296  48.9079541  20.8949164  76.2007608  43.8794462
  21.8241224  76.3518767  43.7063429  20.4740194  76.2891629  43.0243109
  19.6937496  80.2258272  41.6493000  19.5548582  79.8577057  42.5218938
  18.9052092  80.7405912  41.4776958  20.2885648  85.3267369  32.9918536
  20.4637404  84.8555412  33.8064159  19.6018436  85.9533135  33.2199797
  21.2442711  79.6039875  39.0381838  20.9092544  79.5640645  39.9339487
  20.7446657  78.9384591  38.5652248  15.2186955  75.0107505  44.5634419
  15.0806753  74.2787744  45.1645958  16.1291879  74.9216405  44.2818606
  24.1801903  76.9495909  29.3118897  23.5631074  76.2242737  29.2151950
  23.7118391  77.7105270  28.9685972  17.8469256  74.7227464  44.0518098
  18.5568874  74.0820656  44.0104717  17.8038564  74.9740359  44.9744279
  25.8356035  81.6594818  46.9724678  25.7768581  80.9754038  46.3055261
  26.2375553  82.4013808  46.5205304  16.5598190  71.7092682  45.8713738
  16.0235547  71.2583421  46.5235334  15.9714898  71.8438591  45.1284202
  14.8546733  88.4756731  39.7658397  15.0943332  89.1075256  40.4437415
  14.0115930  88.1244771  40.0523756  15.9700449  71.1681334  28.4340202
  15.0929915  71.0470134  28.0702448  16.4458202  70.3767412  28.1819090
  25.8373442  79.6234402  45.2038657  24.9500221  79.2860323  45.3265056
  26.4071993  78.8917433  45.4407423   7.4902589  75.9558493  38.5281709
   8.1773629  75.6420223  37.9402724   7.3350718  76.8599858  38.2548960
  12.2937311  70.8448690  42.9566732  12.2095500  70.2374359  42.2217142
  11.4720018  71.3357708  42.9576229  19.3674595  84.2835854  42.1699900
  19.2944767  85.0890825  42.6819205  18.9251988  84.4827820  41.3447922
  19.1564375  83.5207624  35.6802722  18.3731897  84.0629304  35.7740947
  19.8557120  84.0381604  36.0796963  22.4661025  69.3302253  38.3236927
  22.9629725  68.5772216  38.0037998  21.6948007  69.3666570  37.7580137
  30.3190782  75.0342619  39.9655219  30.3080659  75.9167334  39.5949152
  29.4508162  74.6814170  39.7709756  21.8273279  84.1822688  44.3258059
  22.5401251  84.8170153  44.2533961  21.3363307  84.2786554  43.5098061
  23.5490806  78.0873941  35.8975351  22.6147084  78.2075403  35.7280055
  23.7267474  77.1846407  35.6335361  19.0495994  71.4719636  38.0508612
  18.6793781  70.9190677  38.7389518  19.5455086  70.8677770  37.4983612
  26.9363357  73.9291260  36.4325385  27.4023809  74.7619251  36.3585688
  27.3870858  73.4636241  37.1370643  16.8785192  81.9317131  45.1463630
  17.5794652  82.5653614  45.2993024  16.4080307  82.2731863  44.3859269
  25.0039588  80.2735081  33.4311537  25.2799432  80.1591676  34.3405411
  24.1344087  79.8752566  33.3923710  24.9080020  66.2971847  40.4716286
  23.9943100  66.5276074  40.6398493  25.3373121  66.3810291  41.3230319
  24.6786478  74.4861739  42.9716180  24.0257929  74.7337646  42.3168633
  25.0566858  73.6725877  42.6378658  21.6393652  84.5221432  37.0744351
  21.8216047  83.7043088  37.5372103  22.4626638  84.7389124  36.6369241
  21.9735818  83.4489617  34.3359399  22.5023584  82.9382072  33.7229561
  22.2364037  83.1332147  35.2004932  20.7274051  75.2281550  49.4582217
  20.0514688  75.1275679  50.1284593  21.5501685  75.0720764  49.9218215
  12.4752910  81.4653486  42.0794733  13.0606347  80.7197174  42.2122637
  12.2777749  81.7757443  42.9631397  15.3291566  84.5004734  37.0957175
  14.6601941  84.9850861  36.6121215  15.1904435  84.7473954  38.0100554
   7.0670565  74.0359087  40.7999176   7.1054665  73.5022677  41.5936294
   6.5610858  73.5094292  40.1810153  19.4696834  86.5348477  43.6939833
  20.0215142  86.6980099  44.4588919  19.8103028  87.1252915  43.0219858
  14.4461327  68.8823627  44.2961718  14.5102654  69.7438458  43.8839116
  14.3828448  68.2697629  43.5634077  13.9213600  70.9546760  47.9434752
  14.5485639  70.5723837  48.5572277  13.0641519  70.7360962  48.3090445
  24.3207709  81.3609735  49.5488488  24.8647613  81.9739693  49.0543443
  23.7394553  81.9189313  50.0655501  10.6979143  72.7623189  33.8753107
  10.9932584  71.8533867  33.8220161   9.7967178  72.7410928  33.5534110
  22.6065221  84.4830453  40.6803516  22.4816361  83.6820193  40.1714461
  23.2644313  84.9776646  40.1917486  14.2273390  70.8379185  39.8580656
  13.5059975  71.4515153  39.7188129  15.0166645  71.3736950  39.7797302
  24.6700130  82.2839473  42.3083066  23.7230465  82.1644824  42.2361392
  25.0182903  81.3961971  42.3909327  17.0299703  68.1733612  46.1321308
  17.5534105  68.4195908  46.8947617  16.8112036  69.0053647  45.7124445
  12.4266984  70.4437286  33.9992432  12.0979690  69.5634665  33.8167538
  12.7806355  70.3884955  34.8868822  21.6746563  82.0792189  38.5087418
  21.5271526  81.1508897  38.6894988  22.5000057  82.1012280  38.0244493
  15.5408807  70.7310256  34.3667910  15.8804880  71.2596177  33.6446518
  15.9880928  71.0690662  35.1426477  25.2780685  82.9020748  39.5952291
  26.2027232  82.6963609  39.4576742  25.1095988  82.6537149  40.5041632
  18.2352248  69.1147307  43.8170978  17.8949069  68.3155120  44.2191658
  17.5291255  69.4149018  43.2447811  18.8868720  66.1996619  42.2698301
  19.7094789  65.7257098  42.1477191  19.1306784  66.9787103  42.7696987
  17.5276955  69.2284878  32.5661203  18.2485317  69.6066131  32.0624920
  16.9042259  69.9473755  32.6696181  21.6708077  69.9330027  33.5019535
  21.8871692  70.8154665  33.2008363  21.1902145  69.5416240  32.7725177
  16.4107299  72.8915740  40.0790280  16.2651880  73.2056043  40.9714561
  15.9332502  73.5100640  39.5261178  18.2703682  69.8818288  40.1271169
  18.2565250  68.9859381  39.7903467  18.9876110  69.8888952  40.7609455
  20.1229812  70.3155628  42.1724297  19.8647590  71.2372699  42.1708627
  19.5914853  69.9186063  42.8624761  25.0676001  83.4206415  34.9514382
  25.2412879  82.8552838  34.1988235  25.5604892  84.2207310  34.7693872
  10.8852961  75.4321084  43.0177941  10.3406429  76.2080892  43.1498215
  11.7632311  75.7791889  42.8597062  17.6740578  68.7632668  35.3958739
  17.7956489  67.8349314  35.5949627  17.3842620  68.7771354  34.4837055
  20.5431768  66.4487579  38.5325459  20.5653465  66.5126912  37.5777439
  20.9599827  65.6092087  38.7265965  30.9215392  76.1842838  36.5704682
  31.3646538  75.4350163  36.1723805  30.0441903  76.1752975  36.1878414
  26.0551174  82.7373180  32.0511280  26.7502078  83.3579872  32.2698595
  26.3974324  81.8868531  32.3263658  11.6718983  74.5590981  45.9108098
  10.9300719  74.7073616  46.4972728  11.3511727  74.8199246  45.0474847
  27.9542597  80.1872885  33.5798611  28.4793921  80.5260158  32.8547931
  27.8664949  79.2519901  33.3961746  19.6162646  84.1006959  45.7088488
  19.9249772  83.8556106  46.5811187  20.4138128  84.3053597  45.2207358
  19.6383258  86.2544869  37.9393864  19.1988248  85.7621247  38.6326721
  20.3891375  85.7117836  37.6985940  12.1175597  82.4456409  37.9418492
  12.9433616  82.1460181  37.5617136  11.7669649  81.6764032  38.3908281
  17.0857130  81.7982878  40.0116166  16.4637139  81.1353583  39.7118394
  17.7561997  81.8244010  39.3289814  10.3184202  80.3642736  38.9007426
   9.4816110  79.9364910  38.7191427  10.2907847  80.5575179  39.8378217
  17.1581657  70.2764666  49.6048672  17.2069813  71.1526788  49.2226442
  17.7004171  69.7342059  49.0320315  27.6436503  80.8205789  48.8849809
  26.8532047  80.8029928  48.3454308  27.4069857  81.3594083  49.6398846
  27.7634378  77.6698255  46.1982538  27.8132383  77.5048263  47.1398060
  27.6548301  76.8025514  45.8080418  16.6470637  80.3486801  33.4874627
  16.7958757  81.0322265  32.8341299  17.4537080  80.3291891  34.0024082
  25.0538140  73.6529183  47.5141844  25.9548003  73.5135648  47.2225842
  25.1286115  73.8183638  48.4540022  19.3880946  71.0296038  46.3595031
  18.5184255  71.3229604  46.0877619  19.6240426  71.6136483  47.0802294
  29.2652575  80.0895197  46.4424559  28.9737383  80.4525177  47.2788020
  28.6524706  79.3762205  46.2637891  30.4648257  77.6548077  38.9627129
  31.2995148  78.0937881  39.1264690  30.6007386  77.1786730  38.1435375
  27.5139763  75.2127811  44.9104617  27.9893885  75.4055458  44.1023469
  26.5905328  75.2686997  44.6648001  14.4023270  76.3751979  34.4935695
  14.1569312  75.4714309  34.6915906  14.5719184  76.3769129  33.5515173
  22.0919979  67.2475655  43.8760451  22.6101923  67.9836682  43.5506940
  21.7375112  67.5539648  44.7107210  13.6718917  72.1080336  31.9921857
  12.9788162  72.1824691  31.3361893  13.4270669  71.3440680  32.5143374
  22.3432574  63.6675938  39.3961348  22.6234327  62.9999127  40.0221774
  23.1283181  63.8605033  38.8836011  20.1466042  82.8434931  30.9586374
  19.5740009  83.4625119  30.5056846  20.7198836  83.3934293  31.4926296
  26.2141432  72.0893572  43.1432923  27.1658855  72.1891669  43.1645147
  26.0444882  71.2971840  43.6531007  24.2355811  69.1749155  43.3292324
  23.6405744  69.4554167  42.6338812  23.9505508  69.6643056  44.1009065
  23.3663302  83.1272082  32.0894956  24.2993975  83.0617643  32.2927832
  23.2786515  83.9628348  31.6309489  25.9951319  82.4437952  29.0498904
  25.9164950  82.1097815  29.9434662  26.8160985  82.9359720  29.0490376
  28.6929510  75.3099691  42.2575222  28.6605830  74.3715692  42.4434906
  29.3030133  75.3883728  41.5241047  20.5312841  74.1795744  28.3002426
  21.4771945  74.0501952  28.3690844  20.1527086  73.4410406  28.7771855
  28.8423998  72.1010735  42.3033506  28.3263047  71.3169191  42.1163434
  29.7263947  71.7729451  42.4680025  26.5034725  65.8451750  38.2629318
  26.3059546  65.5366838  39.1472650  27.1134431  66.5713389  38.3927248
  34.5106060  76.3715698  41.3981259  35.2409448  76.1100986  41.9588963
  33.9013005  75.6344420  41.4383327  32.5921357  74.5123561  41.9955710
  31.8654520  74.3779526  41.3872202  32.1768644  74.8200389  42.8012428
  20.4151533  78.2313490  49.7603083  21.3354543  78.4092089  49.9543130
  20.3801116  77.2869536  49.6082783  18.7155758  72.1045721  28.2357312
  17.8087213  71.8078833  28.3120025  18.9931739  71.8075539  27.3691598
   9.6333698  73.4252084  38.6856358   9.3136483  72.5717392  38.3930732
   9.0867126  73.6400662  39.4414325  13.4113606  76.1414525  42.4025865
  13.6299616  77.0731633  42.4213898  13.8239380  75.7822499  43.1880668
  20.3317824  66.6482610  34.3901553  19.5218552  66.3029695  34.7656799
  21.0202240  66.3390154  34.9789165  22.2608372  65.7260657  36.0125850
  22.8139410  66.1456111  36.6715873  22.4978458  64.7996405  36.0548806
  18.2841471  71.7147731  51.7928614  18.1838198  72.6642088  51.7240705
  18.0663013  71.3865970  50.9204684  17.4854542  68.9632656  28.3769291
  18.3473706  69.2887554  28.6365108  17.6704887  68.1764152  27.8642357
   9.5021958  77.0454995  40.6549480   8.8085430  76.6308948  40.1419434
  10.2494949  77.0875532  40.0582899  25.6387179  67.8361182  35.5204514
  25.0585848  68.4945986  35.1382566  25.3723112  67.0138527  35.1091931
  24.0890745  67.2366240  37.7225834  24.5890524  67.3482774  36.9140153
  24.7326353  66.9327293  38.3626643  18.1472741  75.1444870  50.6093675
  17.6639823  75.9445230  50.8157564  18.2333680  75.1552814  49.6561119
  11.4158701  76.9773249  38.5315495  11.3929389  77.0760937  37.5797378
  11.7259337  77.8238400  38.8532661  14.0746079  79.0349404  42.6462109
  15.0289332  79.0033347  42.5792041  13.8758602  78.5740028  43.4612335
  14.6645461  77.6050520  45.2132907  15.4838350  78.0994599  45.2367744
  14.9382268  76.6882488  45.1850474  24.4212057  69.9961273  34.5760862
  23.5337912  70.2810923  34.3581057  24.8366046  69.8355036  33.7288139
  27.7726593  70.0207794  38.2915201  28.5486983  70.5104246  38.5639818
  27.0474727  70.4465848  38.7487071  30.2099152  70.7335413  39.3489142
  30.8043642  70.4931149  38.6382450  30.2825735  70.0142543  39.9762678
  12.4296307  84.5769024  39.6632307  12.2950775  83.8169425  39.0970305
  12.0128370  85.3009924  39.1961096  23.5655270  79.7605947  28.6708882
  24.2691121  79.9655950  29.2866538  22.8417919  80.3282709  28.9357966
  24.3953081  75.5115809  34.7911152  24.3388282  75.9684360  33.9518785
  24.9481423  74.7506493  34.6133995  28.2057887  71.3005540  35.6161272
  27.9494821  70.9002176  36.4469479  27.5810755  72.0149334  35.4911411
  32.5170224  74.0401614  38.1232563  31.9569782  74.1094803  38.8964125
  31.9113728  73.8642598  37.4032059  15.5865433  85.4738341  39.8750749
  15.4697817  86.4183773  39.7729440  14.7657880  85.1711902  40.2636549
  25.4741968  80.1988476  30.7207342  26.3087572  79.7669675  30.5384817
  25.3126311  80.0270490  31.6484237  25.1287860  76.7020590  32.0863681
  25.0736664  76.5364861  31.1452126  24.5033915  77.4096623  32.2425871
   9.9180375  71.9388654  45.9125104  10.5639239  71.4287608  46.4012329
   9.7097526  72.6757336  46.4868529  22.4433767  79.0069502  51.4117244
  23.3124927  79.1810154  51.0503879  21.9640519  79.8263918  51.2892974
  18.4383985  66.2028699  31.6649000  18.4262655  67.1470539  31.8217271
  19.3307407  66.0198844  31.3708461  16.6119947  86.1266603  43.0906678
  17.5147194  86.1590213  43.4073173  16.3857317  85.1967054  43.1053014
  18.3673549  84.8797589  39.7516757  17.4169180  84.8799451  39.6381129
  18.6706036  84.1330324  39.2352791  22.2536105  62.7971475  35.9194937
  21.4868501  62.2429962  36.0651619  22.6646810  62.8693344  36.7809088
  14.2577866  69.0856271  50.0100118  15.1209328  68.7293076  50.2203442
  13.6843277  68.7470166  50.6975522  34.1026243  90.7158128  40.8162519
  34.7404653  90.5964875  40.1125859  33.9847086  91.6638972  40.8750471
  30.9115949  90.6685556  40.7524044  30.5734461  90.5526620  39.8644578
  31.7805717  90.2676721  40.7325050  26.7702765  92.5221032  36.7420935
  26.2067630  92.4310969  35.9737222  26.6555160  91.7020937  37.2223427
  31.3935732  91.8220407  46.7110249  31.3824373  91.4273206  45.8390753
  31.5556372  91.0886480  47.3044021  24.3167197  94.0172224  39.5805155
  25.1088489  93.6763048  39.1651454  24.5563847  94.1267199  40.5007308
  32.3502324  96.1892000  32.0535399  31.6990303  96.7746080  31.6669413
  33.1446686  96.7198195  32.1130437  26.2757951  93.2781137  32.4522534
  27.0488827  92.7310124  32.3135410  26.6283350  94.1425386  32.6636995
  28.1142993  94.6057519  45.6589433  27.8232859  95.5103150  45.5436099
  28.7499978  94.6474047  46.3733503  29.0399200  91.9834368  42.2490793
  29.6362772  91.7590390  41.5347756  29.0974172  91.2419113  42.8516241
  28.6124229  89.4373803  30.0840984  28.8649749  88.9155324  29.3224447
  27.6748788  89.2739949  30.1867667  33.6567511  88.4409581  37.8915727
  34.4430601  88.0229005  37.5406144  33.9206216  89.3455674  38.0597375
  33.8277589  93.8782432  32.5904384  33.1923422  93.9517058  33.3025288
  33.4974995  94.4676031  31.9123463  39.0575939  88.3784815  38.7948705
  39.7901110  87.8084031  39.0286535  38.3015294  87.9906415  39.2355211
  28.3320517  91.3401909  32.2865359  28.2156775  90.6646812  32.9546443
  28.4422777  90.8534283  31.4697512  30.6752058  90.8012056  35.9912048
  30.3110265  90.2742677  36.7024969  31.5319174  90.4110525  35.8178533
  36.5801359  82.0906389  43.2543314  36.2484684  82.9601800  43.0304529
  35.9846972  81.7742673  43.9337344  30.3157545  85.8301956  30.9873396
  30.4831948  86.6982192  31.3543867  30.1254714  85.9929238  30.0634686
  33.0732878  94.2918935  42.6539227  32.7733601  95.1943974  42.5455034
  32.7283938  94.0251118  43.5060380  26.5245360  90.7432732  38.6875931
  25.5995856  90.6108946  38.8953623  26.7729773  91.5226951  39.1845874
  36.4730022  86.8101475  40.3336664  35.5646900  86.7416883  40.0395425
  36.4217618  87.2873420  41.1618490  30.2946766  88.2859613  31.9720063
  30.1746391  88.7316664  32.8105544  29.5999354  88.6344931  31.4133601
  23.8854171  90.3866005  39.5219720  24.0146552  90.6400484  40.4359132
  23.2051622  90.9793713  39.2024375  30.5470888  88.2291121  48.2771561
  29.7704222  88.7885041  48.2674426  31.1861451  88.7147904  48.7986432
  38.3391669  85.0117913  42.1114538  37.6966049  85.3050446  41.4654333
  37.8346597  84.8970834  42.9167735  35.9931832  88.7581087  32.8000397
  36.9049688  88.9908473  32.6248095  35.4841479  89.3418131  32.2375476
  28.8017260  91.0376574  47.8389528  29.5431945  91.5761618  47.5624352
  28.0954246  91.6642863  47.9961080  34.2772600  93.1805714  46.4361690
  34.6855956  92.7388125  45.6916322  33.5549861  92.6058342  46.6895883
  30.6303670  88.1178321  43.8095247  31.4764865  88.5417735  43.9529896
  30.5702308  87.4611945  44.5033810  34.6001415  93.7406905  40.1913979
  33.9710277  93.9052619  39.4890047  34.2127077  94.1548515  40.9624943
  38.4790646  94.6761343  37.5458343  37.7941685  95.0560244  36.9955376
  38.5634496  95.2856669  38.2790290  33.7803115  85.7782689  45.4676420
  33.5364047  86.5324750  44.9310696  34.0563046  86.1568037  46.3023668
  35.7341578  92.3221302  44.1453686  35.9458473  92.9653062  43.4688067
  35.6871326  91.4883618  43.6775616  33.3367807  84.9339122  41.0490258
  32.4752286  85.2320376  41.3406996  33.3630242  85.1509521  40.1171291
  30.1529376  93.4781313  37.4564064  30.6167722  93.7569016  36.6668686
  29.8886175  92.5764758  37.2737155  27.0453457  93.0252795  40.3943827
  27.6154815  93.4540063  39.7561312  27.6361569  92.7435379  41.0928013
  29.0898262  89.6004465  34.2653629  29.7922306  90.0525509  34.7327555
  28.7578891  88.9588284  34.8933522  27.5378624  88.1916222  48.6404838
  26.9077285  88.8732503  48.8740235  27.4314712  88.0799304  47.6957977
  22.8323596  87.8588018  39.5670763  22.0422650  88.1145547  39.0910873
  23.3234844  88.6736356  39.6722803  36.8487406  95.1993257  42.3176043
  37.6704850  94.7973445  42.0358725  36.8449809  95.0961491  43.2692159
  24.7838342  88.2232597  36.5254239  23.9869505  88.3351292  37.0437735
  24.5563934  88.5619250  35.6595130  30.6144009  94.7477301  44.4736754
  30.6788442  95.2097708  45.3094926  29.9054933  94.1174665  44.6019064
  21.1161299  88.1118509  41.9985753  21.3669338  88.9965518  42.2643329
  21.6520848  87.9323110  41.2260845  44.9393399  91.5432006  38.6661015
  44.1857107  90.9739404  38.5105019  45.0740940  91.5094670  39.6131650
  30.3292027  96.4145408  34.3415734  30.1937702  97.2596944  34.7700582
  30.8701840  96.6164686  33.5781668  26.8159367  82.4936988  51.0030089
  26.4226312  81.9403186  51.6777734  27.6325507  82.8047566  51.3936607
  23.7821424  93.9320846  34.9143659  24.2945945  94.7264096  35.0649224
  24.4344137  93.2347137  34.8477261  25.5916309  97.0486602  36.9966412
  25.7682938  97.9704567  36.8087396  26.3873143  96.7345022  37.4260792
  29.7327328  83.9094867  48.5950346  30.4737041  84.5102020  48.5154808
  29.9645251  83.1672505  48.0368389  24.8768666  89.0951234  46.8728576
  24.7622181  88.1936491  47.1735675  24.0213183  89.3414931  46.5213392
  31.9560503  97.0368975  48.4716076  31.5124358  96.2505353  48.1536981
  32.6177717  97.2248125  47.8059967  34.0541742  97.3171774  46.4997478
  34.0360217  98.1380656  46.0077747  34.9761662  97.1925850  46.7247619
  30.5114796  94.8315904  47.3420986  31.0443133  94.0704192  47.1120294
  29.9828877  94.5389556  48.0845140  33.6784491  79.9375970  42.8714628
  33.3348760  80.8277612  42.7953738  34.0463453  79.7477628  42.0084213
  21.7470341  92.2609500  35.6903230  22.5845563  92.6706509  35.4736938
  21.9248609  91.3208943  35.6603424  33.6434773  89.9284581  31.3787063
  33.1281397  90.6989186  31.6175450  33.3712082  89.2549717  32.0020124
  31.2281884  84.7734282  36.4372301  30.3723481  84.3841132  36.2577940
  31.6408836  84.8526243  35.5772087  32.7581031  82.3080625  40.8363861
  32.2545827  82.2710760  40.0231666  33.0511638  83.2173368  40.8960518
  29.0023917  82.3919355  39.8430043  29.8676914  82.1962163  39.4835932
  29.0701426  82.1629707  40.7699399  38.6169048  92.6816936  33.3140236
  37.8398490  92.3428095  32.8695398  39.2960528  92.6869559  32.6395201
  33.4321077  87.8011673  33.2046844  33.1271212  88.1157822  34.0556987
  34.3851519  87.8793093  33.2474177  31.8767508  93.9601896  34.8539798
  31.3488870  93.2254656  34.5413035  31.3755011  94.7376573  34.6079766
  36.8560354  92.1550917  39.9706844  36.1984029  92.8450178  40.0586973
  37.6600754  92.5447349  40.3140831  26.6086236  84.6221563  37.2146409
  27.1829988  84.3996744  36.4819602  27.1957218  84.6910257  37.9675011
  35.6665813  90.5095290  38.0210786  36.1797695  91.1425281  38.5232496
  36.3167037  89.9096485  37.6554146  26.9355823  86.6526024  31.2342295
  26.0993135  86.9900710  31.5551569  26.7960593  86.5175004  30.2969432
  28.9108904  81.4962812  35.9421479  28.2573316  81.1811829  35.3178094
  28.8689378  80.8738552  36.6681302  30.0220109  91.7782107  27.8574771
  29.1147170  91.5471360  28.0565920  30.5191141  90.9819726  28.0448753
  32.1446644  87.9844745  40.2669127  31.2269205  88.2059692  40.1090815
  32.5606788  88.0591056  39.4080834  32.9281692  89.3836161  35.3971807
  33.6753511  89.8957558  35.0878929  33.1973281  89.0620214  36.2576200
  31.2008342  91.8794702  32.3798761  30.2919561  91.5953734  32.4771231
  31.2303426  92.2993780  31.5202068  36.4327609  95.4901291  36.1489929
  35.9789937  94.6492201  36.2055119  35.8021576  96.1262689  36.4864709
  35.3760529  86.4193277  37.3790596  34.6383286  85.9070663  37.7100839
  35.6287303  85.9793659  36.5673873  34.8760549  97.3277788  37.0839747
  35.1683523  97.8882845  36.3652112  35.3859169  97.6206349  37.8392906
  35.4772156  79.1969529  37.9732365  35.7831033  78.3366893  37.6858280
  36.2024761  79.7887149  37.7731359  21.7696512  89.6000216  36.3613963
  21.5720912  89.0069576  35.6365030  21.2143176  89.2952426  37.0789902
  29.7493236  89.4923322  38.4808556  29.8041846  88.5397159  38.4051033
  28.9384438  89.6482761  38.9649855  30.8984430  93.4203445  29.7186840
  30.4603860  92.7039304  29.2592477  31.6394871  93.6479560  29.1571931
  27.6885596  88.1100382  36.2398935  26.8753462  88.4094552  36.6464127
  28.1844590  87.7156071  36.9573418  29.8394174  98.1058139  38.1733200
  29.7970353  98.3318985  37.2441732  30.7556873  97.8721513  38.3219001
  33.2859808  88.5742206  45.0713829  33.6409195  88.8013680  45.9308295
  33.9331939  88.9060583  44.4491084  39.0157545  91.6960642  35.7763158
  38.8775443  91.8862238  34.8484347  38.6593763  92.4580025  36.2331209
  27.1799671  85.6818737  41.8560170  27.8199050  85.5407497  41.1583134
  26.3477201  85.3953251  41.4798772  39.0426924  93.7637169  40.7874430
  39.4763431  93.6712458  41.6357484  39.7558505  93.7394670  40.1494446
  27.9559975  94.9821168  37.9695163  28.7500573  94.4871488  37.7677738
  27.2451667  94.4539031  37.6062868  32.7754819  97.3639263  42.3207530
  32.8291841  97.9330200  43.0885246  31.9069600  97.5341148  41.9561567
  24.2642738  89.1264250  34.0454915  23.3340326  89.0648705  34.2624878
  24.3600210  88.6040202  33.2491557  24.1828287  85.6519062  36.6333157
  24.4435104  86.5664396  36.5242318  25.0045459  85.1843505  36.7829770
  25.6553212  87.0656820  43.8031982  26.3276266  86.8574182  43.1544630
  24.8282999  86.8678906  43.3637214  39.9042474  93.8060870  43.3207315
  40.0978364  94.7106680  43.5666590  39.8043092  93.3468289  44.1545900
  31.5578785  83.6918761  45.8197642  30.9106700  84.3908710  45.7262119
  32.3279800  84.1254904  46.1873891  34.9657582  93.9567613  48.8948196
  34.8143089  93.7278164  47.9778279  34.9562262  94.9138214  48.9079541
  31.7342919  91.5299525  43.8794462  32.6634979  91.6810685  43.7063429
  31.3133949  91.6183546  43.0243109  30.5331251  95.5550190  41.6493000
  30.3942336  95.1868974  42.5218938  29.7445847  96.0697829  41.4776958
  32.0836466  94.9331793  39.0381838  31.7486298  94.8932563  39.9339487
  31.5840411  94.2676508  38.5652248  26.0580710  90.3399423  44.5634419
  25.9200508  89.6079661  45.1645958  26.9685633  90.2508323  44.2818606
  35.0195657  92.2787827  29.3118897  34.4024828  91.5534655  29.2151950
  34.5512146  93.0397187  28.9685972  28.6863010  90.0519382  44.0518098
  29.3962629  89.4112574  44.0104717  28.6432319  90.3032277  44.9744279
  36.6749789  96.9886735  46.9724678  36.6162335  96.3045955  46.3055261
  37.0769307  97.7305725  46.5205304  27.3991944  87.0384600  45.8713738
  26.8629301  86.5875338  46.5235334  26.8108653  87.1730509  45.1284202
  26.8094203  86.4973251  28.4340202  25.9323670  86.3762052  28.0702448
  27.2851956  85.7059330  28.1819090  36.6767196  94.9526319  45.2038657
  35.7893975  94.6152241  45.3265056  37.2465747  94.2209350  45.4407423
  18.3296343  91.2850411  38.5281709  19.0167383  90.9712141  37.9402724
  18.1744472  92.1891776  38.2548960  23.1331066  86.1740607  42.9566732
  23.0489254  85.5666277  42.2217142  22.3113772  86.6649626  42.9576229
  29.9958129  98.8499542  35.6802722  29.2125651  99.3921222  35.7740947
  30.6950875  99.3673521  36.0796963  33.3054779  84.6594171  38.3236927
  33.8023479  83.9064133  38.0037998  32.5341761  84.6958488  37.7580137
  41.1584537  90.3634537  39.9655219  41.1474413  91.2459252  39.5949152
  40.2901916  90.0106087  39.7709756  32.6667033  99.5114606  44.3258059
  33.3795005 100.1462070  44.2533961  32.1757062  99.6078472  43.5098061
  34.3884560  93.4165858  35.8975351  33.4540839  93.5367321  35.7280055
  34.5661229  92.5138325  35.6335361  29.8889748  86.8011554  38.0508612
  29.5187536  86.2482594  38.7389518  30.3848841  86.1969687  37.4983612
  37.7757112  89.2583178  36.4325385  38.2417564  90.0911169  36.3585688
  38.2264612  88.7928159  37.1370643  27.7178947  97.2609049  45.1463630
  28.4188406  97.8945532  45.2993024  27.2474062  97.6023781  44.3859269
  35.8433343  95.6026999  33.4311537  36.1193187  95.4883593  34.3405411
  34.9737841  95.2044484  33.3923710  35.7473774  81.6263765  40.4716286
  34.8336854  81.8567991  40.6398493  36.1766876  81.7102209  41.3230319
  35.5180233  89.8153656  42.9716180  34.8651683  90.0629564  42.3168633
  35.8960613  89.0017795  42.6378658  32.4787407  99.8513350  37.0744351
  32.6609801  99.0335006  37.5372103  33.3020393 100.0681042  36.6369241
  32.8129572  98.7781535  34.3359399  33.3417339  98.2673989  33.7229561
  33.0757792  98.4624065  35.2004932  31.5667806  90.5573468  49.4582217
  30.8908443  90.4567597  50.1284593  32.3895440  90.4012681  49.9218215
  23.3146665  96.7945404  42.0794733  23.9000102  96.0489092  42.2122637
  23.1171503  97.1049361  42.9631397  17.9064320  89.3651004  40.7999176
  17.9448419  88.8314595  41.5936294  17.4004612  88.8386210  40.1810153
  25.2855082  84.2115545  44.2961718  25.3496408  85.0730376  43.8839116
  25.2222202  83.5989546  43.5634077  24.7607354  86.2838677  47.9434752
  25.3879393  85.9015755  48.5572277  23.9035273  86.0652879  48.3090445
  35.1601463  96.6901653  49.5488488  35.7041367  97.3031611  49.0543443
  34.5788308  97.2481231  50.0655501  21.5372897  88.0915106  33.8753107
  21.8326338  87.1825785  33.8220161  20.6360933  88.0702846  33.5534110
  33.4458976  99.8122371  40.6803516  33.3210115  99.0112110  40.1714461
  34.1038067 100.3068564  40.1917486  25.0667144  86.1671103  39.8580656
  24.3453730  86.7807071  39.7188129  25.8560400  86.7028868  39.7797302
  35.5093884  97.6131391  42.3083066  34.5624220  97.4936742  42.2361392
  35.8576657  96.7253889  42.3909327  27.8693458  83.5025530  46.1321308
  28.3927860  83.7487826  46.8947617  27.6505791  84.3345564  45.7124445
  23.2660739  85.7729204  33.9992432  22.9373445  84.8926583  33.8167538
  23.6200109  85.7176873  34.8868822  32.5140318  97.4084107  38.5087418
  32.3665280  96.4800814  38.6894988  33.3393811  97.4304198  38.0244493
  26.3802562  86.0602174  34.3667910  26.7198634  86.5888095  33.6446518
  26.8274682  86.3982580  35.1426477  36.1174439  98.2312666  39.5952291
  37.0420987  98.0255527  39.4576742  35.9489743  97.9829067  40.5041632
  29.0746003  84.4439225  43.8170978  28.7342823  83.6447038  44.2191658
  28.3685009  84.7440935  43.2447811  29.7262475  81.5288537  42.2698301
  30.5488544  81.0549015  42.1477191  29.9700538  82.3079021  42.7696987
  28.3670709  84.5576795  32.5661203  29.0879072  84.9358048  32.0624920
  27.7436013  85.2765672  32.6696181  32.5101832  85.2621944  33.5019535
  32.7265446  86.1446582  33.2008363  32.0295899  84.8708158  32.7725177
  27.2501053  88.2207658  40.0790280  27.1045634  88.5347961  40.9714561
  26.7726257  88.8392558  39.5261178  29.1097436  85.2110206  40.1271169
  29.0959005  84.3151299  39.7903467  29.8269864  85.2180869  40.7609455
  30.9623567  85.6447546  42.1724297  30.7041345  86.5664617  42.1708627
  30.4308607  85.2477980  42.8624761  35.9069756  98.7498333  34.9514382
  36.0806633  98.1844755  34.1988235  36.3998647  99.5499228  34.7693872
  21.7246715  90.7613002  43.0177941  21.1800184  91.5372810  43.1498215
  22.6026065  91.1083807  42.8597062  28.5134332  84.0924586  35.3958739
  28.6350243  83.1641232  35.5949627  28.2236375  84.1063272  34.4837055
  31.3825523  81.7779496  38.5325459  31.4047219  81.8418829  37.5777439
  31.7993582  80.9384005  38.7265965  41.7609147  91.5134756  36.5704682
  42.2040293  90.7642081  36.1723805  40.8835657  91.5044892  36.1878414
  36.8944928  98.0665097  32.0511280  37.5895833  98.6871790  32.2698595
  37.2368078  97.2160449  32.3263658  22.5112737  89.8882898  45.9108098
  21.7694473  90.0365534  46.4972728  22.1905482  90.1491164  45.0474847
  38.7936351  95.5164803  33.5798611  39.3187675  95.8552076  32.8547931
  38.7058704  94.5811818  33.3961746  30.4556400  99.4298877  45.7088488
  30.7643526  99.1848023  46.5811187  31.2531882  99.6345515  45.2207358
  27.9250884  97.1274795  40.0116166  27.3030893  96.4645500  39.7118394
  28.5955751  97.1535927  39.3289814  21.1577956  95.6934654  38.9007426
  20.3209864  95.2656828  38.7191427  21.1301602  95.8867097  39.8378217
  27.9975412  85.6056583  49.6048672  28.0463567  86.4818706  49.2226442
  28.5397926  85.0633976  49.0320315  38.4830257  96.1497707  48.8849809
  37.6925801  96.1321845  48.3454308  38.2463612  96.6886000  49.6398846
  38.6028132  92.9990173  46.1982538  38.6526137  92.8340180  47.1398060
  38.4942056  92.1317432  45.8080418  27.4864391  95.6778719  33.4874627
  27.6352511  96.3614183  32.8341299  28.2930835  95.6583809  34.0024082
  35.8931895  88.9821101  47.5141844  36.7941758  88.8427566  47.2225842
  35.9679869  89.1475556  48.4540022  30.2274700  86.3587956  46.3595031
  29.3578010  86.6521522  46.0877619  30.4634181  86.9428401  47.0802294
  40.1046329  95.4187114  46.4424559  39.8131138  95.7817095  47.2788020
  39.4918461  94.7054123  46.2637891  41.3042012  92.9839994  38.9627129
  42.1388903  93.4229798  39.1264690  41.4401140  92.5078647  38.1435375
  38.3533517  90.5419729  44.9104617  38.8287639  90.7347375  44.1023469
  37.4299083  90.5978915  44.6648001  25.2417024  91.7043896  34.4935695
  24.9963066  90.8006226  34.6915906  25.4112939  91.7061047  33.5515173
  32.9313734  82.5767573  43.8760451  33.4495678  83.3128600  43.5506940
  32.5768867  82.8831566  44.7107210  24.5112672  87.4372254  31.9921857
  23.8181917  87.5116609  31.3361893  24.2664424  86.6732597  32.5143374
  33.1826328  78.9967855  39.3961348  33.4628082  78.3291044  40.0221774
  33.9676935  79.1896951  38.8836011  30.9859797  98.1726849  30.9586374
  30.4133764  98.7917036  30.5056846  31.5592590  98.7226211  31.4926296
  37.0535186  87.4185489  43.1432923  38.0052609  87.5183587  43.1645147
  36.8838637  86.6263758  43.6531007  35.0749566  84.5041072  43.3292324
  34.4799498  84.7846085  42.6338812  34.7899263  84.9934973  44.1009065
  34.2057056  98.4563999  32.0894956  35.1387730  98.3909561  32.2927832
  34.1180269  99.2920266  31.6309489  36.8345073  97.7729870  29.0498904
  36.7558705  97.4389733  29.9434662  37.6554740  98.2651637  29.0490376
  39.5323264  90.6391609  42.2575222  39.4999584  89.7007610  42.4434906
  40.1423888  90.7175646  41.5241047  31.3706595  89.5087662  28.3002426
  32.3165700  89.3793870  28.3690844  30.9920840  88.7702324  28.7771855
  39.6817753  87.4302652  42.3033506  39.1656801  86.6461109  42.1163434
  40.5657701  87.1021369  42.4680025  37.3428480  81.1743668  38.2629318
  37.1453301  80.8658756  39.1472650  37.9528185  81.9005307  38.3927248
  45.3499814  91.7007616  41.3981259  46.0803203  91.4392904  41.9588963
  44.7406760  90.9636338  41.4383327  43.4315111  89.8415478  41.9955710
  42.7048275  89.7071443  41.3872202  43.0162398  90.1492307  42.8012428
  31.2545288  93.5605408  49.7603083  32.1748297  93.7384007  49.9543130
  31.2194871  92.6161453  49.6082783  29.5549512  87.4337638  28.2357312
  28.6480968  87.1370751  28.3120025  29.8325493  87.1367456  27.3691598
  20.4727453  88.7544002  38.6856358  20.1530237  87.9009310  38.3930732
  19.9260881  88.9692580  39.4414325  24.2507360  91.4706443  42.4025865
  24.4693370  92.4023550  42.4213898  24.6633134  91.1114417  43.1880668
  31.1711578  81.9774528  34.3901553  30.3612306  81.6321613  34.7656799
  31.8595995  81.6682072  34.9789165  33.1002126  81.0552575  36.0125850
  33.6533165  81.4748028  36.6715873  33.3372213  80.1288323  36.0548806
  29.1235226  87.0439648  51.7928614  29.0231952  87.9934005  51.7240705
  28.9056768  86.7157887  50.9204684  28.3248297  84.2924573  28.3769291
  29.1867461  84.6179472  28.6365108  28.5098641  83.5056069  27.8642357
  20.3415713  92.3746913  40.6549480  19.6479184  91.9600866  40.1419434
  21.0888704  92.4167450  40.0582899  36.4780933  83.1653100  35.5204514
  35.8979602  83.8237904  35.1382566  36.2116866  82.3430445  35.1091931
  34.9284500  82.5658158  37.7225834  35.4284278  82.6774692  36.9140153
  35.5720108  82.2619210  38.3626643  28.9866496  90.4736787  50.6093675
  28.5033577  91.2737147  50.8157564  29.0727435  90.4844732  49.6561119
  22.2552455  92.3065167  38.5315495  22.2323143  92.4052854  37.5797378
  22.5653092  93.1530318  38.8532661  24.9139833  94.3641322  42.6462109
  25.8683087  94.3325264  42.5792041  24.7152357  93.9031946  43.4612335
  25.5039215  92.9342438  45.2132907  26.3232104  93.4286517  45.2367744
  25.7776023  92.0174406  45.1850474  35.2605811  85.3253190  34.5760862
  34.3731666  85.6102841  34.3581057  35.6759800  85.1646954  33.7288139
  38.6120348  85.3499711  38.2915201  39.3880738  85.8396164  38.5639818
  37.8868482  85.7757765  38.7487071  41.0492906  86.0627330  39.3489142
  41.6437397  85.8223066  38.6382450  41.1219490  85.3434461  39.9762678
  34.4049025  95.0897865  28.6708882  35.1084875  95.2947867  29.2866538
  33.6811674  95.6574627  28.9357966  35.2346835  90.8407726  34.7911152
  35.1782037  91.2976278  33.9518785  35.7875178  90.0798411  34.6133995
  39.0451641  86.6297458  35.6161272  38.7888575  86.2294094  36.4469479
  38.4204509  87.3441252  35.4911411  43.3563979  89.3693531  38.1232563
  42.7963537  89.4386721  38.8964125  42.7507482  89.1934516  37.4032059
  36.3135722  95.5280394  30.7207342  37.1481326  95.0961593  30.5384817
  36.1520065  95.3562408  31.6484237  35.9681614  92.0312507  32.0863681
  35.9130418  91.8656779  31.1452126  35.3427670  92.7388540  32.2425871
  20.7574129  87.2680572  45.9125104  21.4032993  86.7579526  46.4012329
  20.5491281  88.0049253  46.4868529  33.2827522  94.3361419  51.4117244
  34.1518681  94.5102072  51.0503879  32.8034273  95.1555836  51.2892974
  29.2777740  81.5320616  31.6649000  29.2656410  82.4762456  31.8217271
  30.1701162  81.3490762  31.3708461  33.0929859  78.1263393  35.9194937
  32.3262255  77.5721880  36.0651619  33.5040564  78.1985262  36.7809088
  25.0971620  84.4148189  50.0100118  25.9603082  84.0584994  50.2203442
  24.5237031  84.0762084  50.6975522  44.4961266 103.7701499  37.8915727
  45.2824355 103.3520922  37.5406144  44.7599970 104.6747591  38.0597375
  49.8969693 103.7076732  38.7948705  50.6294865 103.1375949  39.0286535
  49.1409049 103.3198333  39.2355211  47.4195113  97.4198306  43.2543314
  47.0878438  98.2893717  43.0304529  46.8240727  97.1034590  43.9337344
  41.1551300 101.1593874  30.9873396  41.3225702 102.0274110  31.3543867
  40.9648469 101.3221155  30.0634686  47.3123777 102.1393393  40.3336664
  46.4040654 102.0708801  40.0395425  47.2611372 102.6165338  41.1618490
  49.1785423 100.3409831  42.1114538  48.5359803 100.6342364  41.4654333
  48.6740352 100.2262751  42.9167735  46.8325587 104.0873004  32.8000397
  47.7443443 104.3200391  32.6248095  46.3235234 104.6710048  32.2375476
  41.4697424 103.4470239  43.8095247  42.3158620 103.8709652  43.9529896
  41.4096062 102.7903863  44.5033810  44.6196870 101.1074607  45.4676420
  44.3757802 101.8616668  44.9310696  44.8956800 101.4859955  46.3023668
  44.1761561 100.2631040  41.0490258  43.3146041 100.5612294  41.3406996
  44.2023996 100.4801439  40.1171291  55.7787154 106.8723923  38.6661015
  55.0250862 106.3031322  38.5105019  55.9134695 106.8386588  39.6131650
  37.6553121  97.8228906  51.0030089  37.2620067  97.2695104  51.6777734
  38.4719262  98.1339484  51.3936607  40.5721082  99.2386785  48.5950346
  41.3130796  99.8393938  48.5154808  40.8039005  98.4964422  48.0368389
  44.5178245  95.2667888  42.8714628  44.1742515  96.1569529  42.7953738
  44.8857208  95.0769545  42.0084213  42.0675639 100.1026200  36.4372301
  41.2117235  99.7133050  36.2577940  42.4802591 100.1818160  35.5772087
  43.5974786  97.6372543  40.8363861  43.0939581  97.6002678  40.0231666
  43.8905392  98.5465285  40.8960518  39.8417671  97.7211272  39.8430043
  40.7070668  97.5254081  39.4835932  39.9095180  97.4921624  40.7699399
  44.2714831 103.1303591  33.2046844  43.9664967 103.4449740  34.0556987
  45.2245273 103.2085011  33.2474177  37.4479991  99.9513480  37.2146409
  38.0223742  99.7288662  36.4819602  38.0350973 100.0202175  37.9675011
  39.7502658  96.8254729  35.9421479  39.0967071  96.5103746  35.3178094
  39.7083132  96.2030470  36.6681302  42.9840399 103.3136663  40.2669127
  42.0662960 103.5351610  40.1090815  43.4000542 103.3882973  39.4080834
  46.2154283 101.7485195  37.3790596  45.4777040 101.2362581  37.7100839
  46.4681057 101.3085576  36.5673873  46.3165911  94.5261447  37.9732365
  46.6224788  93.6658810  37.6858280  47.0418516  95.1179067  37.7731359
  44.1253562 103.9034124  45.0713829  44.4802950 104.1305597  45.9308295
  44.7725693 104.2352501  44.4491084  38.0193425 101.0110655  41.8560170
  38.6592805 100.8699414  41.1583134  37.1870956 100.7245169  41.4798772
  42.3972539  99.0210678  45.8197642  41.7500454  99.7200628  45.7262119
  43.1673554  99.4546822  46.1873891  38.2385699 102.3676517  45.8713738
  37.7023056 101.9167256  46.5235334  37.6502407 102.5022426  45.1284202
  37.6487958 101.8265169  28.4340202  36.7717424 101.7053970  28.0702448
  38.1245711 101.0351247  28.1819090  44.1448534  99.9886089  38.3236927
  44.6417234  99.2356051  38.0037998  43.3735515 100.0250405  37.7580137
  51.9978291 105.6926454  39.9655219  51.9868168 106.5751170  39.5949152
  51.1295671 105.3398005  39.7709756  40.7283503 102.1303472  38.0508612
  40.3581290 101.5774512  38.7389518  41.2242595 101.5261605  37.4983612
  48.6150866 104.5875095  36.4325385  49.0811318 105.4203087  36.3585688
  49.0658367 104.1220077  37.1370643  46.5867529  96.9555682  40.4716286
  45.6730609  97.1859909  40.6398493  47.0160630  97.0394126  41.3230319
  36.1248836  99.5407462  44.2961718  36.1890163 100.4022293  43.8839116
  36.0615957  98.9281464  43.5634077  35.6001109 101.6130595  47.9434752
  36.2273148 101.2307672  48.5572277  34.7429028 101.3944797  48.3090445
  38.7087212  98.8317447  46.1321308  39.2321614  99.0779744  46.8947617
  38.4899545  99.6637482  45.7124445  34.1054493 101.1021122  33.9992432
  33.7767199 100.2218501  33.8167538  34.4593864 101.0468790  34.8868822
  37.2196316 101.3894092  34.3667910  37.5592389 101.9180013  33.6446518
  37.6668437 101.7274498  35.1426477  39.9139757  99.7731142  43.8170978
  39.5736578  98.9738955  44.2191658  39.2078764 100.0732853  43.2447811
  40.5656229  96.8580455  42.2698301  41.3882298  96.3840933  42.1477191
  40.8094293  97.6370938  42.7696987  39.2064464  99.8868713  32.5661203
  39.9272826 100.2649966  32.0624920  38.5829768 100.6057590  32.6696181
  43.3495586 100.5913862  33.5019535  43.5659201 101.4738500  33.2008363
  42.8689654 100.2000076  32.7725177  39.9491191 100.5402123  40.1271169
  39.9352759  99.6443217  39.7903467  40.6663619 100.5472787  40.7609455
  41.8017321 100.9739464  42.1724297  41.5435099 101.8956534  42.1708627
  41.2702362 100.5769898  42.8624761  39.3528087  99.4216504  35.3958739
  39.4743998  98.4933150  35.5949627  39.0630129  99.4355190  34.4837055
  42.2219277  97.1071414  38.5325459  42.2440974  97.1710747  37.5777439
  42.6387336  96.2675923  38.7265965  52.6002901 106.8426674  36.5704682
  53.0434047 106.0933999  36.1723805  51.7229412 106.8336810  36.1878414
  38.8369166 100.9348501  49.6048672  38.8857322 101.8110624  49.2226442
  39.3791680 100.3925894  49.0320315  46.7325649 104.3113019  47.5141844
  47.6335512 104.1719484  47.2225842  46.8073624 104.4767473  48.4540022
  41.0668455 101.6879873  46.3595031  40.1971764 101.9813439  46.0877619
  41.3027935 102.2720318  47.0802294  49.1927272 105.8711647  44.9104617
  49.6681394 106.0639293  44.1023469  48.2692837 105.9270833  44.6648001
  43.7707488  97.9059490  43.8760451  44.2889432  98.6420517  43.5506940
  43.4162621  98.2123484  44.7107210  44.0220083  94.3259773  39.3961348
  44.3021836  93.6582962  40.0221774  44.8070690  94.5188868  38.8836011
  47.8928941 102.7477407  43.1432923  48.8446364 102.8475505  43.1645147
  47.7232391 101.9555675  43.6531007  45.9143320  99.8332990  43.3292324
  45.3193253 100.1138003  42.6338812  45.6293017 100.3226891  44.1009065
  50.3717019 105.9683527  42.2575222  50.3393339 105.0299527  42.4434906
  50.9817642 106.0467563  41.5241047  50.5211507 102.7594570  42.3033506
  50.0050556 101.9753027  42.1163434  51.4051456 102.4313287  42.4680025
  48.1822234  96.5035586  38.2629318  47.9847055  96.1950674  39.1472650
  48.7921940  97.2297224  38.3927248  56.1893569 107.0299533  41.3981259
  56.9196957 106.7684822  41.9588963  55.5800514 106.2928255  41.4383327
  54.2708866 105.1707396  41.9955710  53.5442029 105.0363361  41.3872202
  53.8556153 105.4784225  42.8012428  40.3943267 102.7629556  28.2357312
  39.4874722 102.4662669  28.3120025  40.6719248 102.4659374  27.3691598
  42.0105333  97.3066446  34.3901553  41.2006061  96.9613531  34.7656799
  42.6989749  96.9973989  34.9789165  43.9395881  96.3844492  36.0125850
  44.4926919  96.8039946  36.6715873  44.1765967  95.4580241  36.0548806
  39.1642051  99.6216491  28.3769291  40.0261215  99.9471389  28.6365108
  39.3492396  98.8347987  27.8642357  47.3174688  98.4945018  35.5204514
  46.7373357  99.1529822  35.1382566  47.0510621  97.6722362  35.1091931
  45.7678254  97.8950075  37.7225834  46.2678033  98.0066610  36.9140153
  46.4113862  97.5911128  38.3626643  46.0999566 100.6545108  34.5760862
  45.2125421 100.9394759  34.3581057  46.5153555 100.4938871  33.7288139
  49.4514102 100.6791629  38.2915201  50.2274492 101.1688081  38.5639818
  48.7262236 101.1049683  38.7487071  51.8886661 101.3919248  39.3489142
  52.4831151 101.1514984  38.6382450  51.9613244 100.6726379  39.9762678
  49.8845396 101.9589376  35.6161272  49.6282330 101.5586011  36.4469479
  49.2598264 102.6733170  35.4911411  54.1957733 104.6985449  38.1232563
  53.6357291 104.7678638  38.8964125  53.5901237 104.5226434  37.4032059
  40.1171494  96.8612534  31.6649000  40.1050164  97.8054374  31.8217271
  41.0094916  96.6782680  31.3708461  43.9323614  93.4555311  35.9194937
  43.1656010  92.9013797  36.0651619  44.3434319  93.5277180  36.7809088
  35.9365375  99.7440107  50.0100118  36.7996836  99.3876911  50.2203442
  35.3630786  99.4054001  50.6975522   1.7591338  24.1992084  33.1606997
   2.1674694  23.7574494  32.4161629   1.0368599  23.6244711  33.4141189
   2.0820152  24.7593275  26.9159285   1.4529015  24.9238989  26.2135353
   1.6945814  25.1734884  27.6870249   5.9609384  25.6947712  24.2703649
   5.2760422  26.0746614  23.7200682   6.0453234  26.3043039  25.0035597
   1.2621853  16.7969059  32.1921727   1.0182785  17.5511120  31.6556003
   1.5381784  17.1754407  33.0268974   3.2160316  23.3407671  30.8698993
   3.4277211  23.9839431  30.1933374   3.1690064  22.5069988  30.4020923
   4.3306144  26.2179627  29.0421350   5.1523588  25.8159814  28.7604032
   4.3268547  26.1147861  29.9937466  12.4212137  22.5618375  25.3906322
  11.6675845  21.9925773  25.2350326  12.5559678  22.5281040  26.3376956
   1.5360479  28.3358144  33.2242784   1.5178955  29.1567025  32.7323053
   2.4580399  28.2112219  33.4492925   4.3379092  23.1737287  26.6952151
   3.6802767  23.8636548  26.7832280   5.1419491  23.5633718  27.0386137
   2.3579286  28.3464157  23.8085053   2.6502261  28.9069214  23.0897419
   2.8677907  28.6392718  24.5638213   0.7678545  19.5928576  31.7959136
   1.1227933  19.8200049  32.6553602   1.4150677  19.9246953  31.1736391
   6.5245662  24.7823539  27.5119736   6.9582169  24.6898828  28.3602790
   7.2377243  24.7581039  26.8739752   7.3861212  24.8247240  30.0452622
   7.5797102  25.7293050  30.2911897   7.2861830  24.3654659  30.8791207
   2.4476320  24.9753982  35.6193502   2.2961827  24.7464534  34.7023586
   2.4381000  25.9324584  35.6324847   4.1568527  28.0073105  33.6969984
   4.0981073  27.3232325  33.0300567   4.5588045  28.7492095  33.2450610
   4.1585934  25.9712689  31.9283964   3.2712713  25.6338611  32.0510363
   4.7284485  25.2395720  32.1652729   8.6403275  21.3820906  26.6900526
   8.6293151  22.2645622  26.3194459   7.7720654  21.0292457  26.4955063
   2.9998971  20.8340026  29.6961487   2.3470421  21.0815933  29.0413940
   3.3779350  20.0204164  29.3623964   2.6420201  27.7088022  36.2733794
   3.1860105  28.3217980  35.7788749   2.0607046  28.2667600  36.7900807
   0.9277714  30.8308740  27.4048822   0.8028853  30.0298480  26.8959768
   1.5856805  31.3254933  26.9162792   2.9912622  28.6317760  29.0328372
   2.0442958  28.5123111  28.9606699   3.3395395  27.7440258  29.1154634
   3.5993177  29.2499035  26.3197597   4.5239725  29.0441896  26.1822048
   3.4308481  29.0015436  27.2286939   5.9648995  27.1684076  35.6095116
   5.1744539  27.1508215  35.0699615   5.7282350  27.7072370  36.3644152
   6.0846870  24.0176543  32.9227844   6.1344875  23.8526550  33.8643367
   5.9760794  23.1503802  32.5325725   3.3750633  20.0007471  34.2387151
   4.2760495  19.8613935  33.9471149   3.4498607  20.1661925  35.1785328
   7.5865067  26.4373484  33.1669866   7.2949875  26.8003465  34.0033327
   6.9737198  25.7240492  32.9883198   8.7860749  24.0026364  25.6872436
   9.6207641  24.4416168  25.8509996   8.9219878  23.5265017  24.8680682
   5.8352255  21.5606099  31.6349924   6.3106377  21.7533745  30.8268775
   4.9117821  21.6165284  31.3893307   4.5353924  18.4371859  29.8678229
   5.4871347  18.5369956  29.8890453   4.3657375  17.6450127  30.3776314
   7.0142002  21.6577978  28.9820529   6.9818322  20.7193979  29.1680213
   7.6242626  21.7362015  28.2486354   7.1636491  18.4489022  29.0278812
   6.6475539  17.6647479  28.8408741   8.0476439  18.1207738  29.1925332
  12.8318552  22.7193985  28.1226566  13.5621940  22.4579273  28.6834269
  12.2225497  21.9822707  28.1628634  10.9133849  20.8601848  28.7201017
  10.1867013  20.7257813  28.1117509  10.4981136  21.1678676  29.5257735
  12.4238735  37.0636415  27.5407826  13.0617145  36.9443162  26.8371166
  12.3059578  38.0117259  27.5995778   9.2328441  37.0163843  27.4769350
   8.8946953  36.9004908  26.5889885  10.1018210  36.6155008  27.4570356
   5.0915257  38.8699319  23.4666241   4.5280122  38.7789256  22.6982529
   4.9767652  38.0499224  23.9468734   9.7148224  38.1698695  33.4355556
   9.7036865  37.7751493  32.5636059   9.8768864  37.4364767  34.0289327
   2.6379689  40.3650511  26.3050462   3.4300981  40.0241336  25.8896761
   2.8776339  40.4745486  27.2252615  10.6714816  42.5370287  18.7780706
  10.0202796  43.1224367  18.3914720  11.4659179  43.0676482  18.8375744
   4.5970443  39.6259424  19.1767840   5.3701319  39.0788411  19.0380716
   4.9495842  40.4903674  19.3882302   6.4355486  40.9535806  32.3834740
   6.1445352  41.8581437  32.2681406   7.0712470  40.9952334  33.0978809
   7.3611692  38.3312655  28.9736099   7.9575265  38.1068677  28.2593062
   7.4186664  37.5897400  29.5761547  11.9780004  34.7887869  24.6161034
  12.7643093  34.3707292  24.2651451  12.2418708  35.6933961  24.7842682
  12.1490081  40.2260719  19.3149690  11.5135914  40.2995346  20.0270595
  11.8187487  40.8154318  18.6368770  17.3788431  34.7263102  25.5194012
  18.1113603  34.1562319  25.7531842  16.6227786  34.3384702  25.9600518
   6.6533010  37.6880196  19.0110665   6.5369268  37.0125100  19.6791750
   6.7635269  37.2012570  18.1942818   8.9964551  37.1490343  22.7157355
   8.6322758  36.6220964  23.4270276   9.8531666  36.7588812  22.5423840
  14.9013851  28.4384676  29.9788621  14.5697176  29.3080087  29.7549836
  14.3059465  28.1220960  30.6582651  11.3945371  40.6397222  29.3784533
  11.0946094  41.5422261  29.2700341  11.0496430  40.3729405  30.2305686
   4.8457852  37.0911019  25.4121238   3.9208349  36.9587233  25.6198930
   5.0942265  37.8705238  25.9091180  14.7942514  33.1579762  27.0581971
  13.8859392  33.0895171  26.7640732  14.7430110  33.6351707  27.8863796
   8.6159258  34.6337901  18.6965370   8.4958884  35.0794951  19.5350850
   7.9211847  34.9823218  18.1378908   2.2066663  36.7344292  26.2465027
   2.3359044  36.9878771  27.1604439   1.5264114  37.3272000  25.9269682
   6.3766150  47.4041542  22.3455501   6.2990180  48.3549367  22.4243982
   5.7727794  47.0587415  23.0030427   8.8683380  34.5769408  35.0016868
   8.0916714  35.1363328  34.9919733   9.5073943  35.0626191  35.5231738
  16.6604161  31.3596201  28.8359845  16.0178541  31.6528734  28.1899639
  16.1559089  31.2449121  29.6413041  14.3144325  35.1059374  19.5245704
  15.2262181  35.3386761  19.3493401  13.8053972  35.6896418  18.9620783
   7.1229753  37.3854861  34.5634835   7.8644437  37.9239905  34.2869659
   6.4166738  38.0121150  34.7206387  12.5985092  39.5284002  33.1606997
  13.0068448  39.0866412  32.4161629  11.8762354  38.9536629  33.4141189
   8.9516162  34.4656608  30.5340553   9.7977357  34.8896022  30.6775202
   8.8914800  33.8090233  31.2279117  12.9213907  40.0885192  26.9159285
  12.2922769  40.2530906  26.2135353  12.5339569  40.5026802  27.6870249
  16.8003139  41.0239630  24.2703649  16.1154177  41.4038531  23.7200682
  16.8846988  41.6334957  25.0035597  12.1015608  32.1260977  32.1921727
  11.8576539  32.8803037  31.6556003  12.3775538  32.5046324  33.0268974
  14.0554070  38.6699589  30.8698993  14.2670966  39.3131349  30.1933374
  14.0083819  37.8361906  30.4020923  11.6580299  31.2817410  27.7735565
  10.7964778  31.5798663  28.0652302  11.6842734  31.4987809  26.8416597
   8.4741869  39.8259600  24.1809371   8.9380214  40.1047303  23.3913993
   8.2098667  38.9243045  23.9982461   5.3665950  39.3731082  27.1189134
   5.9367307  39.8018350  26.4806618   5.9574062  39.0913667  27.8173319
   7.4110755  35.9482753  20.9898936   8.1134798  36.4003796  21.4572862
   7.0791383  35.3066572  21.6178829   5.8591116  34.5394509  35.3650145
   5.2289777  35.2210790  35.5985542   5.7527204  34.4277591  34.4203283
  15.1699898  41.5471545  29.0421350  15.9917342  41.1451732  28.7604032
  15.1662301  41.4439779  29.9937466   3.1050834  34.5710885  23.2499546
   2.3081997  34.6829579  23.7683042   2.8776426  34.9097537  22.3840436
   8.9356502  41.0955588  31.1982061   9.0000934  41.5575995  32.0340232
   8.2267426  40.4652953  31.3264370  23.2605891  37.8910293  25.3906322
  22.5069600  37.3217691  25.2350326  23.3953433  37.8572957  26.3376956
   8.6504519  42.7623695  21.0661041   8.5150194  43.6075231  21.4945889
   9.1914332  42.9642973  20.3026975   5.1371859  28.8415275  37.7275396
   4.7438805  28.2881474  38.4023040   5.9537999  29.1525854  38.1181914
   2.1033917  40.2799133  21.6388966   2.6158437  41.0742384  21.7894531
   2.7556630  39.5825424  21.5722567   3.9128801  43.3964890  23.7211719
   4.0895430  44.3182854  23.5332703   4.7085635  43.0823309  24.1506099
   8.0539820  30.2573154  35.3195653   8.7949533  30.8580307  35.2400115
   8.2857743  29.5150792  34.7613695   3.1981158  35.4429522  33.5973882
   3.0834673  34.5414779  33.8980981   2.3425676  35.6893218  33.2458699
  10.2772996  43.3847262  35.1961383   9.8336850  42.5983640  34.8782287
  10.9390209  43.5726412  34.5305274   5.0360117  44.9143063  29.7222061
   5.5867542  44.7860127  28.9499055   4.1971593  45.2137952  29.3716954
  12.3754234  43.6650062  33.2242784  12.3572709  44.4858943  32.7323053
  13.2974154  43.5404137  33.4492925   8.8327288  41.1794191  34.0666293
   9.3655625  40.4182479  33.8365601   8.3041369  40.8867843  34.8090447
  11.9996983  26.2854257  29.5959934  11.6561252  27.1755899  29.5199045
  12.3675946  26.0955915  28.7329519  11.9647266  36.2762868  18.1032369
  11.4493889  37.0467473  18.3420757  11.6924574  35.6028004  18.7265431
   9.5494377  31.1212569  23.1617608   8.6935973  30.7319419  22.9823247
   9.9621328  31.2004530  22.3017393  11.0793523  28.6558912  27.5609168
  10.5758319  28.6189047  26.7476973  11.3724130  29.5651655  27.6205824
   7.3236409  28.7397642  26.5675349   8.1889406  28.5440451  26.2081239
   7.3913918  28.5107994  27.4944706  16.9381540  39.0295223  20.0385543
  16.1610983  38.6906382  19.5940705  17.6173021  39.0347846  19.3640508
  11.7533569  34.1489960  19.9292151  11.4483704  34.4636110  20.7802294
  12.7064011  34.2271380  19.9719484  10.1980001  40.3080184  21.5785105
   9.6701362  39.5732943  21.2658342   9.6967503  41.0854860  21.3325073
  15.1772847  38.5029204  26.6952151  14.5196521  39.1928466  26.7832280
  15.9813246  38.8925636  27.0386137   4.9298728  30.9699850  23.9391716
   5.5042480  30.7475031  23.2064909   5.5169711  31.0388544  24.6920317
  13.9878306  36.8573577  24.7456093  14.5010187  37.4903569  25.2477802
  14.6379529  36.2574772  24.3799453  11.2500680  46.8357901  17.5016764
  10.5762379  47.1389598  18.1101722  11.6366502  47.6386981  17.1522221
  10.4659136  34.3323032  26.9914433   9.5481698  34.5537979  26.8336121
  10.8819280  34.4069343  26.1326141  11.2494184  35.7314448  22.1217113
  11.9966003  36.2435845  21.8124235  11.5185774  35.4098501  22.9821507
   9.5220834  38.2272989  19.1044068   8.6132054  37.9432022  19.2016537
   9.5515918  38.6472067  18.2447375  14.7540102  41.8379578  22.8735235
  14.3002429  40.9970488  22.9300426  14.1234068  42.4740977  23.2110015
  13.6973021  32.7671564  24.1035903  12.9595778  32.2548951  24.4346145
  13.9499795  32.3271946  23.2919180  13.1973041  43.6756075  23.8085053
  13.4896015  44.2361132  23.0897419  13.7071662  43.9684636  24.5638213
  13.7984649  25.5447816  24.6977672  14.1043525  24.6845180  24.4103587
  14.5237253  26.1365437  24.4976666   8.0705728  35.8401609  25.2053863
   8.1254338  34.8875446  25.1296340   7.2596930  35.9961049  25.6895161
   9.2196922  39.7681733  16.4432146   8.7816352  39.0517591  15.9837784
   9.9607363  39.9957847  15.8817238   6.0098088  34.4578669  22.9644242
   5.1965954  34.7572840  23.3709434   6.5057082  34.0634358  23.6818724
   8.1606666  44.4536426  24.8978507   8.1182845  44.6797272  23.9687039
   9.0769365  44.2199801  25.0464308  11.6072300  34.9220494  31.7959136
  11.9621688  35.1491967  32.6553602  12.2544431  35.2538870  31.1736391
  17.3370037  38.0438930  22.5008465  17.1987935  38.2340526  21.5729654
  16.9806256  38.8058312  22.9576516   5.5012163  32.0297025  28.5805477
   6.1411542  31.8885784  27.8828440   4.6689694  31.7431538  28.2044079
  17.3639416  40.1115457  27.5119736  17.7975923  40.0190746  28.3602790
  18.0770997  40.0872957  26.8739752   6.2772467  41.3299455  24.6940469
   7.0713065  40.8349775  24.4923044   5.5664159  40.8017318  24.3308175
  11.0967311  43.7117551  29.0452837  11.1504334  44.2808487  29.8130553
  10.2282093  43.8819436  28.6806874   2.5855230  35.4742537  20.7700222
   1.6552818  35.4126992  20.9870184   2.6812702  34.9518490  19.9736863
   2.5040779  31.9997350  23.3578464   2.7647597  32.9142683  23.2487624
   3.3257952  31.5321792  23.5075077   3.9765705  33.4135107  30.5277288
   4.6488758  33.2052469  29.8789937   3.1495491  33.2157193  30.0882521
  18.2254966  40.1539157  30.0452622  18.4190856  41.0584968  30.2911897
  18.1255584  39.6946576  30.8791207   9.8791277  30.0397048  32.5442949
   9.2319192  30.7386997  32.4507426  10.6492292  30.4733192  32.9119197
  13.2870075  40.3045900  35.6193502  13.1355581  40.0756452  34.7023586
  13.2774754  41.2616501  35.6324847  10.0555411  37.8777813  30.6039769
  10.9847471  38.0288972  30.4308736   9.6346441  37.9661833  29.7488415
   8.8543743  41.9028477  28.3738306   8.7154829  41.5347262  29.2464245
   8.0658339  42.4176117  28.2022264   9.4491895  47.0037574  19.7163843
   9.6243651  46.5325617  20.5309466   8.7624683  47.6303340  19.9445104
  10.4048958  41.2810080  25.7627144  10.0698791  41.2410850  26.6584794
   9.9052904  40.6154796  25.2897554   4.3793202  36.6877710  31.2879725
   4.2413000  35.9557949  31.8891264   5.2898126  36.5986610  31.0063913
  13.3408150  38.6266114  16.0364204  12.7237320  37.9012942  15.9397257
  12.8724638  39.3875474  15.6931278   7.0075503  36.3997669  30.7763405
   7.7175121  35.7590861  30.7350023   6.9644811  36.6510564  31.6989586
  14.9962281  43.3365022  33.6969984  14.9374828  42.6524243  33.0300567
  15.3981800  44.0784013  33.2450610   5.7204437  33.3862887  32.5959045
   5.1841794  32.9353626  33.2480641   5.1321145  33.5208796  31.8529509
   4.0152980  50.1526936  26.4903703   4.2549578  50.7845460  27.1682722
   3.1722177  49.8014976  26.7769062  14.9979689  41.3004606  31.9283964
  14.1106467  40.9630528  32.0510363  15.5678240  40.5687638  32.1652729
   1.4543558  32.5218895  29.6812039   1.3701747  31.9144564  28.9462449
   0.6326264  33.0127913  29.6821535   8.5280842  45.9606059  28.8945207
   8.4551014  46.7661030  29.4064512   8.0858235  46.1598025  28.0693229
   8.3170622  45.1977829  22.4048029   7.5338144  45.7399509  22.4986253
   9.0163367  45.7151808  22.8042270  11.6267272  31.0072458  25.0482234
  12.1235971  30.2542421  24.7283304  10.8554253  31.0436775  24.4825443
  19.4797029  36.7112824  26.6900526  19.4686905  37.5937539  26.3194459
  18.6114409  36.3584375  26.4955063  10.9879526  45.8592893  31.0503366
  11.7007498  46.4940358  30.9779267  10.4969554  45.9556759  30.2343368
  12.7097052  39.7644145  22.6220657  11.7753331  39.8845608  22.4525362
  12.8873721  38.8616612  22.3580667   8.2102241  33.1489841  24.7753919
   7.8400028  32.5960882  25.4634824   8.7061333  32.5447975  24.2228919
  16.0969604  35.6061465  23.1570692  16.5630056  36.4389456  23.0830994
  16.5477104  35.1406446  23.8615950   6.0391439  43.6087336  31.8708937
   6.7400899  44.2423819  32.0238331   5.5686554  43.9502068  31.1104576
  14.1645835  41.9505286  20.1556844  14.4405679  41.8361881  21.0650718
  13.2950334  41.5522771  20.1169017  14.0686267  27.9742052  27.1961593
  13.1549346  28.2046279  27.3643800  14.4979368  28.0580496  28.0475625
  13.8392725  36.1631944  29.6961487  13.1864175  36.4107851  29.0413940
  14.2173105  35.3496082  29.3623964  10.7999899  46.1991637  23.7989657
  10.9822293  45.3813293  24.2617410  11.6232885  46.4159329  23.3614547
  11.1342064  45.1259822  21.0604706  11.6629831  44.6152277  20.4474868
  11.3970284  44.8102352  21.9250239   9.8880298  36.9051755  36.1827524
   9.2120935  36.8045884  36.8529899  10.7107932  36.7490969  36.6463521
   1.6359157  43.1423691  28.8040039   2.2212594  42.3967379  28.9367943
   1.4383996  43.4527648  29.6876703   4.4897812  46.1774939  23.8202482
   3.8208188  46.6621066  23.3366522   4.3510682  46.4244159  24.7345860
   8.6303081  48.2118682  30.4185140   9.1821389  48.3750304  31.1834225
   8.9709274  48.8023120  29.7465165   3.6067574  30.5593832  31.0207025
   3.6708901  31.4208663  30.6084422   3.5434694  29.9467834  30.2879383
   3.0819847  32.6316965  34.6680059   3.7091886  32.2494042  35.2817583
   2.2247766  32.4131167  35.0335751  13.4813955  43.0379940  36.2733794
  14.0253859  43.6509898  35.7788749  12.9000800  43.5959518  36.7900807
  11.7671468  46.1600658  27.4048822  11.6422608  45.3590398  26.8959768
  12.4250559  46.6546851  26.9162792   3.3879636  32.5149390  26.5825962
   2.6666222  33.1285358  26.4433436   4.1772892  33.0507155  26.5042608
  13.8306377  43.9609678  29.0328372  12.8836712  43.8415029  28.9606699
  14.1789150  43.0732176  29.1154634   6.1905950  29.8503817  32.8566614
   6.7140352  30.0966113  33.6192923   5.9718283  30.6823852  32.4369752
  10.8352810  43.7562394  25.2332725  10.6877772  42.8279101  25.4140295
  11.6606303  43.7782485  24.7489800   4.7015054  32.4080461  21.0913217
   5.0411127  32.9366382  20.3691825   5.1487175  32.7460867  21.8671783
  14.4386932  44.5790953  26.3197597  15.3633479  44.3733814  26.1822048
  14.2702235  44.3307354  27.2286939   7.3958495  30.7917512  30.5416285
   7.0555315  29.9925325  30.9436965   6.6897501  31.0919223  29.9693118
   8.0474967  27.8766824  28.9943608   8.8701036  27.4027302  28.8722498
   8.2913030  28.6557308  29.4942294  10.8314324  31.6100232  20.2264842
  11.0477939  32.4924870  19.9253670  10.3508391  31.2186445  19.4970484
   5.5713546  34.5685945  26.8035586   5.4258126  34.8826248  27.6959868
   5.0938749  35.1870845  26.2506485   7.4309929  31.5588493  26.8516476
   7.4171497  30.6629586  26.5148774   8.1482357  31.5659157  27.4854762
   9.2836059  31.9925833  28.8969603   9.0253837  32.9142904  28.8953934
   8.7521100  31.5956268  29.5870067  14.2282248  45.0976620  21.6759689
  14.4019126  44.5323043  20.9233541  14.7211139  45.8977515  21.4939179
   6.8346824  30.4402873  22.1204046   6.9562736  29.5119519  22.3194934
   6.5448867  30.4541559  21.2082361   9.7038015  28.1257784  25.2570766
   9.7259712  28.1897117  24.3022745  10.1206074  27.2862292  25.4511272
  20.0821639  37.8613043  23.2949988  20.5252785  37.1120368  22.8969112
  19.2048149  37.8523180  22.9123720  15.2157420  44.4143385  18.7756587
  15.9108325  45.0350077  18.9943902  15.5580571  43.5638736  19.0508965
  17.1148844  41.8643090  20.3043918  17.6400168  42.2030363  19.5793238
  17.0271196  40.9290106  20.1207052   8.7768892  45.7777164  32.4333794
   9.0856019  45.5326311  33.3056494   9.5744374  45.9823802  31.9452665
   8.7989504  47.9315073  24.6639171   8.3594495  47.4391452  25.3572028
   9.5497621  47.3888041  24.4231246   1.2781843  44.1226614  24.6663799
   2.1039863  43.8230386  24.2862443   0.9275895  43.3534237  25.1153588
   6.2463376  43.4753083  26.7361473   5.6243386  42.8123788  26.4363700
   6.9168243  43.5014214  26.0535120   6.3187904  31.9534871  36.3293979
   6.3676059  32.8296993  35.9471748   6.8610418  31.4112264  35.7565622
  16.8042750  42.4975994  35.6095116  16.0138293  42.4800133  35.0699615
  16.5676104  43.0364288  36.3644152  16.9240625  39.3468460  32.9227844
  16.9738630  39.1818468  33.8643367  16.8154548  38.4795719  32.5325725
   5.8076883  42.0257006  20.2119933   5.9565004  42.7092470  19.5586606
   6.6143327  42.0062096  20.7269389  14.2144387  35.3299388  34.2387151
  15.1154250  35.1905853  33.9471149  14.2892362  35.4953843  35.1785328
   8.5487192  32.7066243  33.0840337   7.6790502  32.9999809  32.8122926
   8.7846673  33.2906688  33.8047601  18.4258822  41.7665402  33.1669866
  18.1343630  42.1295382  34.0033327  17.8130953  41.0532410  32.9883198
  19.6254504  39.3318281  25.6872436  20.4601395  39.7708086  25.8509996
  19.7613633  38.8556935  24.8680682  16.6746010  36.8898016  31.6349924
  17.1500131  37.0825663  30.8268775  15.7511575  36.9457202  31.3893307
   3.5629516  38.0522184  21.2181002   3.3175558  37.1484514  21.4161212
   3.7325431  38.0539334  20.2760480  11.2526226  28.9245860  30.6005758
  11.7708170  29.6606887  30.2752246  10.8981359  29.2309853  31.4352517
  11.5038820  25.3446142  26.1206654  11.7840574  24.6769332  26.7467081
  12.2889427  25.5375238  25.6081318   9.3072289  44.5205136  17.6831681
   8.7346256  45.1395323  17.2302152   9.8805083  45.0704498  18.2171603
  15.3747679  33.7663776  29.8678229  16.3265102  33.8661874  29.8890453
  15.2051129  32.9742045  30.3776314  13.3962058  30.8519360  30.0537630
  12.8011990  31.1324372  29.3584119  13.1111755  31.3413261  30.8254371
  12.5269549  44.8042286  18.8140263  13.4600222  44.7387848  19.0173138
  12.4392762  45.6398553  18.3554796  15.1557565  44.1208157  15.7744210
  15.0771197  43.7868020  16.6679968  15.9767232  44.6129925  15.7735683
  17.8535757  36.9869896  28.9820529  17.8212077  36.0485897  29.1680213
  18.4636380  37.0653933  28.2486354  18.0030245  33.7780940  29.0278812
  17.4869294  32.9939396  28.8408741  18.8870194  33.4499656  29.1925332
  15.6640972  27.5221955  24.9874625  15.4665793  27.2137043  25.8717957
  16.2740678  28.2483594  25.1172555  23.6712306  38.0485903  28.1226566
  24.4015695  37.7871191  28.6834269  23.0619252  37.3114625  28.1628634
  21.7527604  36.1893766  28.7201017  21.0260767  36.0549730  28.1117509
  21.3374890  36.4970594  29.5257735   9.5757780  39.9083695  36.4848390
  10.4960789  40.0862294  36.6788437   9.5407363  38.9639741  36.3328089
   2.5719853  37.8184730  29.1271171   2.7905862  38.7501838  29.1459205
   2.9845626  37.4592704  29.9125975   9.4924070  28.3252815  21.1146860
   8.6824799  27.9799900  21.4902106  10.1808487  28.0160359  21.7034471
  11.4214619  27.4030862  22.7371156  11.9745657  27.8226315  23.3961179
  11.6584705  26.4766610  22.7794112   7.4447718  33.3917936  38.5173920
   7.3444445  34.3412293  38.4486011   7.2269260  33.0636175  37.6449990
  14.7993426  29.5131387  22.2449821  14.2192095  30.1716191  21.8627873
  14.5329358  28.6908732  21.8337238  13.2496992  28.9136445  24.4471141
  13.7496770  29.0252979  23.6385460  13.8932600  28.6097498  25.0871949
   7.3078988  36.8215074  37.3338982   6.8246070  37.6215435  37.5402871
   7.3939927  36.8323019  36.3806426   3.2352325  40.7119609  29.3707416
   4.1895579  40.6803552  29.3037347   3.0364849  40.2510233  30.1857641
   3.8251707  39.2820725  31.9378213   4.6444596  39.7764804  31.9613051
   4.0988515  38.3652693  31.9095781  13.5818304  31.6731478  21.3006169
  12.6944159  31.9581128  21.0826364  13.9972293  31.5125241  20.4533446
  16.9332840  31.6977999  25.0160508  17.7093230  32.1874451  25.2885125
  16.2080974  32.1236053  25.4732378  19.3705398  32.4105618  26.0734449
  19.9649889  32.1701354  25.3627757  19.4431982  31.6912748  26.7007985
   1.5902554  46.2539229  26.3877613   1.4557022  45.4939630  25.8215612
   1.1734616  46.9780129  25.9206402  12.7261517  41.4376152  15.3954189
  13.4297367  41.6426155  16.0111844  12.0024166  42.0052914  15.6603272
  13.5559327  37.1886013  21.5156459  13.4994529  37.6454565  20.6764091
  14.1087670  36.4276698  21.3379302  17.3664133  32.9775745  22.3406578
  17.1101068  32.5772381  23.1714786  16.7417001  33.6919539  22.2156718
  21.6776471  35.7171819  24.8477870  21.1176029  35.7865008  25.6209432
  21.0719975  35.5412803  24.1277366   4.7471680  47.1508546  26.5996056
   4.6304064  48.0953978  26.4974746   3.9264126  46.8482107  26.9881855
  14.6348215  41.8758681  17.4452649  15.4693818  41.4439880  17.2630124
  14.4732557  41.7040695  18.3729543  14.2894107  38.3790795  18.8108988
  14.2342911  38.2135066  17.8697432  13.6640162  39.0866828  18.9671178
  11.6040014  40.6839707  38.1362551  12.4731174  40.8580359  37.7749186
  11.1246765  41.5034123  38.0138280   5.7726194  47.8036808  29.8151985
   6.6753441  47.8360418  30.1318479   5.5463564  46.8737259  29.8298320
   7.5279796  46.5567794  26.4762063   6.5775427  46.5569656  26.3626435
   7.8312282  45.8100529  25.9598098  11.4142352  24.4741680  22.6440243
  10.6474747  23.9200167  22.7896926  11.8253057  24.5463549  23.5054395
   3.4184113  30.7626476  36.7345425   4.2815574  30.4063281  36.9448749
   2.8449523  30.4240371  37.4220829  23.2632490  52.3928333  27.5407826
  23.9010900  52.2735080  26.8371166  23.1453333  53.3409176  27.5995778
  20.0722196  52.3455761  27.4769350  19.7340707  52.2296825  26.5889885
  20.9411964  51.9446926  27.4570356  15.9309012  54.1991237  23.4666241
  15.3673877  54.1081174  22.6982529  15.8161407  53.3791141  23.9468734
  20.5541979  53.4990612  33.4355556  20.5430620  53.1043411  32.5636059
  20.7162618  52.7656685  34.0289327  13.4773444  55.6942429  26.3050462
  14.2694735  55.3533253  25.8896761  13.7170094  55.8037404  27.2252615
  21.5108570  57.8662205  18.7780706  20.8596550  58.4516285  18.3914720
  22.3052933  58.3968400  18.8375744  15.4364197  54.9551342  19.1767840
  16.2095073  54.4080329  19.0380716  15.7889596  55.8195591  19.3882302
  17.2749240  56.2827724  32.3834740  16.9839106  57.1873355  32.2681406
  17.9106224  56.3244252  33.0978809  18.2005447  53.6604573  28.9736099
  18.7969019  53.4360595  28.2593062  18.2580418  52.9189318  29.5761547
  17.7730475  51.1144008  16.8086290  18.0255996  50.5925529  16.0469753
  16.8355034  50.9510153  16.9112974  22.8173758  50.1179786  24.6161034
  23.6036847  49.6999210  24.2651451  23.0812462  51.0225879  24.7842682
  22.9883835  55.5552637  19.3149690  22.3529668  55.6287263  20.0270595
  22.6581242  56.1446236  18.6368770  28.2182185  50.0555020  25.5194012
  28.9507357  49.4854236  25.7531842  27.4621541  49.6676620  25.9600518
  17.4926764  53.0172114  19.0110665  17.3763022  52.3417017  19.6791750
  17.6029024  52.5304488  18.1942818  19.8358305  52.4782261  22.7157355
  19.4716512  51.9512882  23.4270276  20.6925421  52.0880730  22.5423840
  25.7407606  43.7676594  29.9788621  25.4090930  44.6372005  29.7549836
  25.1453219  43.4512878  30.6582651  19.4763792  47.5072161  17.7118703
  19.6438194  48.3752397  18.0789174  19.2860961  47.6699442  16.7879992
  22.2339125  55.9689140  29.3784533  21.9339848  56.8714178  29.2700341
  21.8890185  55.7021323  30.2305686  15.6851607  52.4202937  25.4121238
  14.7602103  52.2879151  25.6198930  15.9336020  53.1997156  25.9091180
  25.6336269  48.4871680  27.0581971  24.7253146  48.4187088  26.7640732
  25.5823865  48.9643625  27.8863796  19.4553013  49.9629818  18.6965370
  19.3352638  50.4086869  19.5350850  18.7605601  50.3115136  18.1378908
  13.0460418  52.0636210  26.2465027  13.1752799  52.3170689  27.1604439
  12.3657869  52.6563918  25.9269682  17.2159905  62.7333460  22.3455501
  17.1383935  63.6841285  22.4243982  16.6121549  62.3879333  23.0030427
  19.7077135  49.9061325  35.0016868  18.9310469  50.4655246  34.9919733
  20.3467698  50.3918108  35.5231738  27.4997915  46.6888118  28.8359845
  26.8572296  46.9820651  28.1899639  26.9952844  46.5741039  29.6413041
  25.1538079  50.4351291  19.5245704  26.0655935  50.6678678  19.3493401
  24.6447726  51.0188336  18.9620783  17.9623507  52.7146779  34.5634835
  18.7038191  53.2531823  34.2869659  17.2560492  53.3413068  34.7206387
  23.4378847  54.8575919  33.1606997  23.8462203  54.4158330  32.4161629
  22.7156108  54.2828547  33.4141189  19.7909917  49.7948526  30.5340553
  20.6371112  50.2187940  30.6775202  19.7308554  49.1382150  31.2279117
  23.7607661  55.4177110  26.9159285  23.1316524  55.5822824  26.2135353
  23.3733323  55.8318719  27.6870249  27.6396893  56.3531548  24.2703649
  26.9547931  56.7330449  23.7200682  27.7240743  56.9626874  25.0035597
  22.9409362  47.4552894  32.1921727  22.6970294  48.2094955  31.6556003
  23.2169293  47.8338242  33.0268974  24.8947825  53.9991507  30.8698993
  25.1064720  54.6423267  30.1933374  24.8477573  53.1653823  30.4020923
  22.4974054  46.6109327  27.7735565  21.6358533  46.9090581  28.0652302
  22.5236488  46.8279726  26.8416597  19.3135623  55.1551518  24.1809371
  19.7773969  55.4339221  23.3913993  19.0492421  54.2534963  23.9982461
  16.2059704  54.7023000  27.1189134  16.7761061  55.1310268  26.4806618
  16.7967816  54.4205584  27.8173319  18.2504509  51.2774670  20.9898936
  18.9528553  51.7295714  21.4572862  17.9185138  50.6358489  21.6178829
  16.6984871  49.8686427  35.3650145  16.0683531  50.5502708  35.5985542
  16.5920959  49.7569509  34.4203283  11.9929843  49.5358223  26.2916069
  11.2028897  49.7915752  25.8156180  12.4841091  50.3506561  26.3968110
  26.0093653  56.8763462  29.0421350  26.8311096  56.4743649  28.7604032
  26.0056056  56.7731696  29.9937466  13.9444589  49.9002802  23.2499546
  13.1475752  50.0121497  23.7683042  13.7170181  50.2389454  22.3840436
  19.7750256  56.4247505  31.1982061  19.8394689  56.8867913  32.0340232
  19.0661180  55.7944870  31.3264370  10.2767546  49.7888713  28.7231060
  10.5275585  50.6735723  28.9888636  10.8127095  49.6093315  27.9506152
  34.0999646  53.2202211  25.3906322  33.3463354  52.6509609  25.2350326
  34.2347187  53.1864875  26.3376956  19.4898274  58.0915613  21.0661041
  19.3543949  58.9367149  21.4945889  20.0308086  58.2934891  20.3026975
  15.9765614  44.1707193  37.7275396  15.5832559  43.6173391  38.4023040
  16.7931754  44.4817771  38.1181914  12.9427671  55.6091051  21.6388966
  13.4552192  56.4034301  21.7894531  13.5950384  54.9117341  21.5722567
  14.7522556  58.7256807  23.7211719  14.9289184  59.6474772  23.5332703
  15.5479389  58.4115227  24.1506099  18.8933574  45.5865072  35.3195653
  19.6343288  46.1872225  35.2400115  19.1251497  44.8442710  34.7613695
  14.0374913  50.7721439  33.5973882  13.9228428  49.8706696  33.8980981
  13.1819430  51.0185136  33.2458699  21.1166750  58.7139179  35.1961383
  20.6730604  57.9275558  34.8782287  21.7783964  58.9018330  34.5305274
  15.8753871  60.2434981  29.7222061  16.4261297  60.1152044  28.9499055
  15.0365347  60.5429870  29.3716954  23.2147988  58.9941979  33.2242784
  23.1966464  59.8150860  32.7323053  24.1367908  58.8696055  33.4492925
  19.6721042  56.5086109  34.0666293  20.2049379  55.7474397  33.8365601
  19.1435124  56.2159761  34.8090447  22.8390737  41.6146175  29.5959934
  22.4955007  42.5047817  29.5199045  23.2069700  41.4247832  28.7329519
  10.9076588  53.9379705  22.4148536  11.7451810  54.3476714  22.1982244
  11.0854856  52.9979147  22.3848730  22.8041020  51.6054786  18.1032369
  22.2887644  52.3759391  18.3420757  22.5318329  50.9319922  18.7265431
  20.3888131  46.4504487  23.1617608  19.5329728  46.0611337  22.9823247
  20.8015083  46.5296448  22.3017393  21.9187278  43.9850830  27.5609168
  21.4152073  43.9480965  26.7476973  22.2117885  44.8943573  27.6205824
  18.1630164  44.0689560  26.5675349  19.0283160  43.8732368  26.2081239
  18.2307673  43.8399912  27.4944706  27.7775294  54.3587141  20.0385543
  27.0004737  54.0198300  19.5940705  28.4566775  54.3639764  19.3640508
  22.5927323  49.4781878  19.9292151  22.2877459  49.7928027  20.7802294
  23.5457765  49.5563298  19.9719484  21.0373755  55.6372101  21.5785105
  20.5095117  54.9024861  21.2658342  20.5361258  56.4146778  21.3325073
  26.0166601  53.8321122  26.6952151  25.3590276  54.5220383  26.7832280
  26.8207000  54.2217554  27.0386137  15.7692483  46.2991768  23.9391716
  16.3436235  46.0766949  23.2064909  16.3563465  46.3680462  24.6920317
  24.8272060  52.1865495  24.7456093  25.3403942  52.8195486  25.2477802
  25.4773284  51.5866690  24.3799453  16.0962070  48.3296229  17.9587601
  15.2599382  48.6670915  18.2796876  15.9566840  48.1945208  17.0214738
  18.0715150  43.1733017  22.6666786  17.4179563  42.8582034  22.0423400
  18.0295625  42.5508757  23.3926608  19.1826355  53.4552312  14.5820078
  18.2753417  53.2241565  14.7811227  19.6797387  52.6589931  14.7694059
  22.0894434  62.1649819  17.5016764  21.4156133  62.4681516  18.1101722
  22.4760256  62.9678899  17.1522221  21.3052891  49.6614950  26.9914433
  20.3875452  49.8829897  26.8336121  21.7213034  49.7361261  26.1326141
  22.0887939  51.0606366  22.1217113  22.8359758  51.5727763  21.8124235
  22.3579528  50.7390419  22.9821507  20.3614589  53.5564907  19.1044068
  19.4525808  53.2723939  19.2016537  20.3909673  53.9763985  18.2447375
  25.5933856  57.1671496  22.8735235  25.1396183  56.3262406  22.9300426
  24.9627823  57.8032894  23.2110015  24.5366776  48.0963482  24.1035903
  23.7989533  47.5840868  24.4346145  24.7893549  47.6563864  23.2919180
  24.0366795  59.0047993  23.8085053  24.3289770  59.5653050  23.0897419
  24.5465416  59.2976554  24.5638213  24.6378403  40.8739734  24.6977672
  24.9437280  40.0137097  24.4103587  25.3631008  41.4657354  24.4976666
  10.9302759  51.2770421  23.0859270  10.7327159  50.6839781  22.3610336
  10.3749423  50.9722631  23.8035209  18.9099483  51.1693527  25.2053863
  18.9648093  50.2167364  25.1296340  18.0990685  51.3252966  25.6895161
  20.0590677  55.0973650  16.4432146  19.6210107  54.3809509  15.9837784
  20.8001117  55.3249765  15.8817238  16.8491843  49.7870587  22.9644242
  16.0359708  50.0864757  23.3709434  17.3450837  49.3926276  23.6818724
  19.0000421  59.7828344  24.8978507  18.9576599  60.0089190  23.9687039
  19.9163120  59.5491718  25.0464308  22.4466054  50.2512411  31.7959136
  22.8015442  50.4783884  32.6553602  23.0938186  50.5830788  31.1736391
  28.1763791  53.3730847  22.5008465  28.0381690  53.5632443  21.5729654
  27.8200010  54.1350230  22.9576516  16.3405918  47.3588942  28.5805477
  16.9805297  47.2177701  27.8828440  15.5083448  47.0723456  28.2044079
  28.2033171  55.4407374  27.5119736  28.6369678  55.3482663  28.3602790
  28.9164752  55.4164875  26.8739752  17.1166221  56.6591373  24.6940469
  17.9106820  56.1641693  24.4923044  16.4057914  56.1309236  24.3308175
  21.9361066  59.0409468  29.0452837  21.9898088  59.6100405  29.8130553
  21.0675847  59.2111353  28.6806874  13.4248985  50.8034455  20.7700222
  12.4946573  50.7418910  20.9870184  13.5206457  50.2810407  19.9736863
  13.3434534  47.3289267  23.3578464  13.6041351  48.2434601  23.2487624
  14.1651706  46.8613710  23.5075077  14.8159459  48.7427025  30.5277288
  15.4882513  48.5344387  29.8789937  13.9889246  48.5449111  30.0882521
  29.0648721  55.4831075  30.0452622  29.2584611  56.3876885  30.2911897
  28.9649339  55.0238494  30.8791207  20.7185031  45.3688965  32.5442949
  20.0712946  46.0678915  32.4507426  21.4886047  45.8025109  32.9119197
  24.1263829  55.6337818  35.6193502  23.9749336  55.4048369  34.7023586
  24.1168509  56.5908419  35.6324847  20.8949166  53.2069730  30.6039769
  21.8241226  53.3580890  30.4308736  20.4740196  53.2953751  29.7488415
  19.6937497  57.2320395  28.3738306  19.5548583  56.8639179  29.2464245
  18.9052094  57.7468034  28.2022264  20.2885649  62.3329491  19.7163843
  20.4637405  61.8617534  20.5309466  19.6018437  62.9595257  19.9445104
  21.2442713  56.6101997  25.7627144  20.9092545  56.5702767  26.6584794
  20.7446658  55.9446713  25.2897554  15.2186957  52.0169628  31.2879725
  15.0806754  51.2849866  31.8891264  16.1291880  51.9278528  31.0063913
  24.1801904  53.9558032  16.0364204  23.5631075  53.2304860  15.9397257
  23.7118393  54.7167392  15.6931278  17.8469257  51.7289587  30.7763405
  18.5568876  51.0882779  30.7350023  17.8038565  51.9802482  31.6989586
  25.8356036  58.6656940  33.6969984  25.7768582  57.9816160  33.0300567
  26.2375554  59.4075930  33.2450610  16.5598191  48.7154805  32.5959045
  16.0235548  48.2645543  33.2480641  15.9714900  48.8500714  31.8529509
  14.8546735  65.4818854  26.4903703  15.0943333  66.1137378  27.1682722
  14.0115931  65.1306894  26.7769062  15.9700450  48.1743456  15.1585508
  15.0929916  48.0532257  14.7947755  16.4458203  47.3829534  14.9064397
  25.8373443  56.6296524  31.9283964  24.9500222  56.2922446  32.0510363
  26.4071994  55.8979555  32.1652729   7.4902590  52.9620616  25.2527015
   8.1773630  52.6482346  24.6648031   7.3350719  53.8661980  24.9794267
  12.2937312  47.8510812  29.6812039  12.2095501  47.2436482  28.9462449
  11.4720019  48.3419831  29.6821535  19.3674597  61.2897976  28.8945207
  19.2944768  62.0952948  29.4064512  18.9251990  61.4889942  28.0693229
  19.1564376  60.5269746  22.4048029  18.3731898  61.0691427  22.4986253
  19.8557121  61.0443726  22.8042270  22.4661026  46.3364376  25.0482234
  22.9629726  45.5834338  24.7283304  21.6948008  46.3728693  24.4825443
  30.3190784  52.0404741  26.6900526  30.3080660  52.9229457  26.3194459
  29.4508163  51.6876292  26.4955063  21.8273280  61.1884810  31.0503366
  22.5401252  61.8232275  30.9779267  21.3363309  61.2848676  30.2343368
  23.5490807  55.0936063  22.6220657  22.6147086  55.2137526  22.4525362
  23.7267475  54.1908530  22.3580667  19.0495995  48.4781759  24.7753919
  18.6793783  47.9252799  25.4634824  19.5455087  47.8739892  24.2228919
  26.9363358  50.9353382  23.1570692  27.4023811  51.7681374  23.0830994
  27.3870859  50.4698364  23.8615950  16.8785194  58.9379254  31.8708937
  17.5794653  59.5715737  32.0238331  16.4080309  59.2793985  31.1104576
  25.0039589  57.2797204  20.1556844  25.2799433  57.1653798  21.0650718
  24.1344088  56.8814689  20.1169017  24.9080021  43.3033969  27.1961593
  23.9943101  43.5338196  27.3643800  25.3373123  43.3872414  28.0475625
  24.6786480  51.4923861  29.6961487  24.0257930  51.7399769  29.0413940
  25.0566859  50.6788000  29.3623964  21.6393653  61.5283555  23.7989657
  21.8216048  60.7105211  24.2617410  22.4626639  61.7451247  23.3614547
  21.9735819  60.4551740  21.0604706  22.5023585  59.9444194  20.4474868
  22.2364039  60.1394270  21.9250239  20.7274053  52.2343672  36.1827524
  20.0514690  52.1337802  36.8529899  21.5501686  52.0782886  36.6463521
  12.4752912  58.4715609  28.8040039  13.0606348  57.7259297  28.9367943
  12.2777750  58.7819566  29.6876703  15.3291567  61.5066856  23.8202482
  14.6601942  61.9912984  23.3366522  15.1904437  61.7536077  24.7345860
   7.0670566  51.0421209  27.5244482   7.1054666  50.5084800  28.3181601
   6.5610859  50.5156415  26.9055460  19.4696835  63.5410600  30.4185140
  20.0215143  63.7042221  31.1834225  19.8103029  64.1315038  29.7465165
  14.4461329  45.8885750  31.0207025  14.5102655  46.7500581  30.6084422
  14.3828449  45.2759751  30.2879383  13.9213601  47.9608882  34.6680059
  14.5485640  47.5785960  35.2817583  13.0641520  47.7423084  35.0335751
  24.3207710  58.3671857  36.2733794  24.8647614  58.9801816  35.7788749
  23.7394555  58.9251436  36.7900807  10.6979144  49.7685311  20.5998414
  10.9932585  48.8595990  20.5465468   9.7967180  49.7473051  20.2779416
  22.6065223  61.4892575  27.4048822  22.4816362  60.6882315  26.8959768
  23.2644314  61.9838769  26.9162792  14.2273391  47.8441308  26.5825962
  13.5059977  48.4577276  26.4433436  15.0166647  48.3799073  26.5042608
  24.6700131  59.2901596  29.0328372  23.7230467  59.1706947  28.9606699
  25.0182904  58.4024094  29.1154634  17.0299704  45.1795734  32.8566614
  17.5534106  45.4258031  33.6192923  16.8112038  46.0115769  32.4369752
  12.4266986  47.4499409  20.7237739  12.0979692  46.5696788  20.5412845
  12.7806356  47.3947078  21.6114128  21.6746564  59.0854312  25.2332725
  21.5271527  58.1571019  25.4140295  22.5000058  59.1074402  24.7489800
  15.5408809  47.7372379  21.0913217  15.8804881  48.2658300  20.3691825
  15.9880929  48.0752785  21.8671783  25.2780686  59.9082870  26.3197597
  26.2027234  59.7025732  26.1822048  25.1095990  59.6599272  27.2286939
  18.2352250  46.1209430  30.5416285  17.8949070  45.3217243  30.9436965
  17.5291256  46.4211140  29.9693118  18.8868721  43.2058742  28.9943608
  19.7094791  42.7319220  28.8722498  19.1306785  43.9849226  29.4942294
  17.5276956  46.2347000  19.2906509  18.2485318  46.6128253  18.7870226
  16.9042260  46.9535877  19.3941487  21.6708079  46.9392149  20.2264842
  21.8871693  47.8216787  19.9253670  21.1902146  46.5478363  19.4970484
  16.4107300  49.8977863  26.8035586  16.2651881  50.2118166  27.6959868
  15.9332504  50.5162763  26.2506485  18.2703683  46.8880411  26.8516476
  18.2565252  45.9921504  26.5148774  18.9876111  46.8951074  27.4854762
  20.1229814  47.3217751  28.8969603  19.8647592  48.2434821  28.8953934
  19.5914854  46.9248185  29.5870067  25.0676002  60.4268538  21.6759689
  25.2412880  59.8614960  20.9233541  25.5604894  61.2269433  21.4939179
  10.8852962  52.4383207  29.7423248  10.3406430  53.2143015  29.8743522
  11.7632312  52.7854011  29.5842369  17.6740579  45.7694791  22.1204046
  17.7956490  44.8411437  22.3194934  17.3842621  45.7833477  21.2082361
  20.5431769  43.4549701  25.2570766  20.5653466  43.5189034  24.3022745
  20.9599828  42.6154210  25.4511272  30.9215394  53.1904961  23.2949988
  31.3646540  52.4412286  22.8969112  30.0441904  53.1815097  22.9123720
  26.0551175  59.7435302  18.7756587  26.7502080  60.3641995  18.9943902
  26.3974325  58.8930654  19.0508965  11.6718984  51.5653103  32.6353404
  10.9300720  51.7135739  33.2218035  11.3511728  51.8261369  31.7720154
  27.9542598  57.1935008  20.3043918  28.4793922  57.5322281  19.5793238
  27.8664951  56.2582023  20.1207052  19.6162647  61.1069082  32.4333794
  19.9249773  60.8618228  33.3056494  20.4138129  61.3115720  31.9452665
  19.6383259  63.2606991  24.6639171  19.1988249  62.7683370  25.3572028
  20.3891376  62.7179959  24.4231246  12.1175598  59.4518532  24.6663799
  12.9433618  59.1522304  24.2862443  11.7669650  58.6826154  25.1153588
  17.0857131  58.8045000  26.7361473  16.4637140  58.1415705  26.4363700
  17.7561998  58.8306132  26.0535120  10.3184203  57.3704858  25.6252733
   9.4816111  56.9427033  25.4436734  10.2907848  57.5637302  26.5623524
  17.1581658  47.2826788  36.3293979  17.2069814  48.1588911  35.9471748
  17.7004173  46.7404181  35.7565622  27.6436504  57.8267911  35.6095116
  26.8532048  57.8092050  35.0699615  27.4069859  58.3656205  36.3644152
  27.7634379  54.6760378  32.9227844  27.8132384  54.5110385  33.8643367
  27.6548303  53.8087637  32.5325725  16.6470638  57.3548924  20.2119933
  16.7958758  58.0384388  19.5586606  17.4537081  57.3354014  20.7269389
  25.0538142  50.6591306  34.2387151  25.9548004  50.5197771  33.9471149
  25.1286116  50.8245761  35.1785328  19.3880947  48.0358161  33.0840337
  18.5184256  48.3291727  32.8122926  19.6240427  48.6198606  33.8047601
  29.2652576  57.0957319  33.1669866  28.9737384  57.4587300  34.0033327
  28.6524707  56.3824328  32.9883198  30.4648258  54.6610199  25.6872436
  31.2995150  55.1000003  25.8509996  30.6007387  54.1848852  24.8680682
  27.5139764  52.2189934  31.6349924  27.9893886  52.4117580  30.8268775
  26.5905330  52.2749120  31.3893307  14.4023271  53.3814101  21.2181002
  14.1569313  52.4776431  21.4161212  14.5719185  53.3831252  20.2760480
  22.0919981  44.2537778  30.6005758  22.6101925  44.9898805  30.2752246
  21.7375114  44.5601771  31.4352517  13.6718918  49.1142459  18.7167164
  12.9788163  49.1886814  18.0607200  13.4270670  48.3502802  19.2388680
  22.3432575  40.6738060  26.1206654  22.6234329  40.0061249  26.7467081
  23.1283182  40.8667156  25.6081318  20.1466043  59.8497054  17.6831681
  19.5740010  60.4687241  17.2302152  20.7198837  60.3996416  18.2171603
  26.2141433  49.0955694  29.8678229  27.1658856  49.1953792  29.8890453
  26.0444884  48.3033963  30.3776314  24.2355813  46.1811277  30.0537630
  23.6405745  46.4616290  29.3584119  23.9505509  46.6705178  30.8254371
  23.3663303  60.1334204  18.8140263  24.2993976  60.0679766  19.0173138
  23.2786516  60.9690471  18.3554796  25.9951320  59.4500074  15.7744210
  25.9164951  59.1159938  16.6679968  26.8160987  59.9421842  15.7735683
  28.6929511  52.3161814  28.9820529  28.6605831  51.3777815  29.1680213
  29.3030135  52.3945851  28.2486354  20.5312842  51.1857867  15.0247733
  21.4771947  51.0564075  15.0936151  20.1527087  50.4472529  15.5017161
  28.8424000  49.1072857  29.0278812  28.3263048  48.3231314  28.8408741
  29.7263948  48.7791574  29.1925332  26.5034726  42.8513873  24.9874625
  26.3059548  42.5428961  25.8717957  27.1134432  43.5775512  25.1172555
  34.5106061  53.3777821  28.1226566  35.2409449  53.1163109  28.6834269
  33.9013006  52.6406543  28.1628634  32.5921358  51.5185683  28.7201017
  31.8654522  51.3841648  28.1117509  32.1768645  51.8262512  29.5257735
  20.4151534  55.2375613  36.4848390  21.3354544  55.4154212  36.6788437
  20.3801117  54.2931658  36.3328089  18.7155759  49.1107843  14.9602618
  17.8087214  48.8140956  15.0365332  18.9931740  48.8137661  14.0936905
   9.6333699  50.4314207  25.4101665   9.3136484  49.5779515  25.1176039
   9.0867128  50.6462785  26.1659632  13.4113607  53.1476648  29.1271171
  13.6299617  54.0793755  29.1459205  13.8239381  52.7884622  29.9125975
  20.3317825  43.6544733  21.1146860  19.5218553  43.3091818  21.4902106
  21.0202242  43.3452277  21.7034471  22.2608373  42.7322780  22.7371156
  22.8139412  43.1518233  23.3961179  22.4978459  41.8058528  22.7794112
  18.2841472  48.7209853  38.5173920  18.1838199  49.6704210  38.4486011
  18.0663014  48.3928092  37.6449990  17.4854544  45.9694778  15.1014598
  18.3473708  46.2949677  15.3610415  17.6704888  45.1826274  14.5887663
   9.5021959  54.0517118  27.3794786   8.8085431  53.6371071  26.8664741
  10.2494950  54.0937655  26.7828205  25.6387180  44.8423305  22.2449821
  25.0585849  45.5008109  21.8627873  25.3723113  44.0200649  21.8337238
  24.0890747  44.2428363  24.4471141  24.5890525  44.3544897  23.6385460
  24.7326354  43.9389415  25.0871949  18.1472742  52.1506992  37.3338982
  17.6639824  52.9507352  37.5402871  18.2333681  52.1614937  36.3806426
  11.4158702  53.9835372  25.2560801  11.3929390  54.0823059  24.3042684
  11.7259338  54.8300523  25.5777967  14.0746080  56.0411527  29.3707416
  15.0289333  56.0095469  29.3037347  13.8758603  55.5802151  30.1857641
  14.6645462  54.6112643  31.9378213  15.4838351  55.1056722  31.9613051
  14.9382270  53.6944611  31.9095781  24.4212058  47.0023395  21.3006169
  23.5337913  47.2873046  21.0826364  24.8366047  46.8417159  20.4533446
  27.7726594  47.0269916  25.0160508  28.5486984  47.5166369  25.2885125
  27.0474728  47.4527970  25.4732378  30.2099153  47.7397535  26.0734449
  30.8043644  47.4993271  25.3627757  30.2825737  47.0204666  26.7007985
  12.4296309  61.5831146  26.3877613  12.2950777  60.8231547  25.8215612
  12.0128371  62.3072046  25.9206402  23.5655272  56.7668070  15.3954189
  24.2691122  56.9718072  16.0111844  22.8417920  57.3344832  15.6603272
  24.3953082  52.5177931  21.5156459  24.3388283  52.9746483  20.6764091
  24.9481424  51.7568616  21.3379302  28.2057888  48.3067663  22.3406578
  27.9494822  47.9064299  23.1714786  27.5810756  49.0211457  22.2156718
  32.5170226  51.0463736  24.8477870  31.9569784  51.1156926  25.6209432
  31.9113729  50.8704721  24.1277366  15.5865435  62.4800463  26.5996056
  15.4697819  63.4245896  26.4974746  14.7657881  62.1774025  26.9881855
  25.4741969  57.2050599  17.4452649  26.3087573  56.7731798  17.2630124
  25.3126312  57.0332613  18.3729543  25.1287861  53.7082712  18.8108988
  25.0736665  53.5426984  17.8697432  24.5033917  54.4158745  18.9671178
   9.9180376  48.9450777  32.6370410  10.5639240  48.4349731  33.1257635
   9.7097527  49.6819458  33.2113836  22.4433768  56.0131624  38.1362551
  23.3124928  56.1872277  37.7749186  21.9640520  56.8326041  38.0138280
  18.4383987  43.2090821  18.3894307  18.4262657  44.1532661  18.5462577
  19.3307409  43.0260967  18.0953768  16.6119949  63.1328725  29.8151985
  17.5147195  63.1652336  30.1318479  16.3857319  62.2029176  29.8298320
  18.3673551  61.8859712  26.4762063  17.4169182  61.8861573  26.3626435
  18.6706037  61.1392446  25.9598098  22.2536106  39.8033598  22.6440243
  21.4868502  39.2492085  22.7896926  22.6646811  39.8755467  23.5054395
  14.2577867  46.0918394  36.7345425  15.1209329  45.7355199  36.9448749
  13.6843278  45.7532289  37.4220829  34.1026244  67.7220250  27.5407826
  34.7404654  67.6026998  26.8371166  33.9847087  68.6701094  27.5995778
  30.9115950  67.6747678  27.4769350  30.5734462  67.5588743  26.5889885
  31.7805719  67.2738843  27.4570356  26.7702766  69.5283155  23.4666241
  26.2067631  69.4373092  22.6982529  26.6555161  68.7083059  23.9468734
  31.3935733  68.8282530  33.4355556  31.3824374  68.4335328  32.5636059
  31.5556373  68.0948603  34.0289327  24.3167198  71.0234346  26.3050462
  25.1088490  70.6825171  25.8896761  24.5563848  71.1329321  27.2252615
  32.3502325  73.1954122  18.7780706  31.6990305  73.7808203  18.3914720
  33.1446688  73.7260317  18.8375744  26.2757952  70.2843260  19.1767840
  27.0488828  69.7372247  19.0380716  26.6283351  71.1487509  19.3882302
  28.1142995  71.6119642  32.3834740  27.8232861  72.5165273  32.2681406
  28.7499979  71.6536169  33.0978809  29.0399201  68.9896490  28.9736099
  29.6362774  68.7652513  28.2593062  29.0974173  68.2481236  29.5761547
  28.6124230  66.4435926  16.8086290  28.8649750  65.9217447  16.0469753
  27.6748789  66.2802071  16.9112974  33.6567513  65.4471704  24.6161034
  34.4430602  65.0291127  24.2651451  33.9206217  66.3517796  24.7842682
  33.8277590  70.8844554  19.3149690  33.1923423  70.9579181  20.0270595
  33.4974996  71.4738153  18.6368770  39.0575940  65.3846937  25.5194012
  39.7901112  64.8146154  25.7531842  38.3015295  64.9968538  25.9600518
  28.3320519  68.3464032  19.0110665  28.2156777  67.6708935  19.6791750
  28.4422778  67.8596406  18.1942818  30.6752059  67.8074179  22.7157355
  30.3110267  67.2804800  23.4270276  31.5319175  67.4172648  22.5423840
  36.5801360  59.0968511  29.9788621  36.2484685  59.9663922  29.7549836
  35.9846973  58.7804795  30.6582651  30.3157546  62.8364078  17.7118703
  30.4831949  63.7044315  18.0789174  30.1254716  62.9991360  16.7879992
  33.0732880  71.2981057  29.3784533  32.7733603  72.2006096  29.2700341
  32.7283939  71.0313241  30.2305686  26.5245361  67.7494854  25.4121238
  25.5995858  67.6171068  25.6198930  26.7729774  68.5289073  25.9091180
  36.4730023  63.8163598  27.0581971  35.5646901  63.7479006  26.7640732
  36.4217619  64.2935542  27.8863796  30.2946767  65.2921736  18.6965370
  30.1746393  65.7378787  19.5350850  29.5999356  65.6407054  18.1378908
  23.8854172  67.3928128  26.2465027  24.0146553  67.6462607  27.1604439
  23.2051623  67.9855836  25.9269682  28.0553659  78.0625378  22.3455501
  27.9777689  79.0133203  22.4243982  27.4515303  77.7171250  23.0030427
  30.5470889  65.2353243  35.0016868  29.7704223  65.7947163  34.9919733
  31.1861452  65.7210026  35.5231738  38.3391670  62.0180036  28.8359845
  37.6966050  62.3112569  28.1899639  37.8346598  61.9032956  29.6413041
  35.9931833  65.7643209  19.5245704  36.9049690  65.9970596  19.3493401
  35.4841481  66.3480253  18.9620783  28.8017262  68.0438696  34.5634835
  29.5431946  68.5823740  34.2869659  28.0954247  68.6704985  34.7206387
  34.2772601  70.1867837  33.1606997  34.6855957  69.7450247  32.4161629
  33.5549863  69.6120464  33.4141189  30.6303671  65.1240444  30.5340553
  31.4764866  65.5479857  30.6775202  30.5702309  64.4674068  31.2279117
  34.6001416  70.7469028  26.9159285  33.9710278  70.9114742  26.2135353
  34.2127078  71.1610637  27.6870249  38.4790648  71.6823465  24.2703649
  37.7941686  72.0622367  23.7200682  38.5634497  72.2918792  25.0035597
  33.7803117  62.7844812  32.1921727  33.5364048  63.5386873  31.6556003
  34.0563047  63.1630160  33.0268974  35.7341579  69.3283424  30.8698993
  35.9458475  69.9715184  30.1933374  35.6871328  68.4945741  30.4020923
  33.3367808  61.9401245  27.7735565  32.4752287  62.2382499  28.0652302
  33.3630243  62.1571644  26.8416597  30.1529378  70.4843436  24.1809371
  30.6167723  70.7631139  23.3913993  29.8886176  69.5826880  23.9982461
  27.0453459  70.0314917  27.1189134  27.6154816  70.4602186  26.4806618
  27.6361571  69.7497502  27.8173319  29.0898264  66.6066588  20.9898936
  29.7922307  67.0587632  21.4572862  28.7578892  65.9650407  21.6178829
  27.5378625  65.1978345  35.3650145  26.9077286  65.8794626  35.5985542
  27.4314713  65.0861426  34.4203283  22.8323598  64.8650141  26.2916069
  22.0422652  65.1207669  25.8156180  23.3234845  65.6798479  26.3968110
  36.8487407  72.2055380  29.0421350  37.6704851  71.8035567  28.7604032
  36.8449810  72.1023614  29.9937466  24.7838343  65.2294720  23.2499546
  23.9869506  65.3413414  23.7683042  24.5563935  65.5681372  22.3840436
  30.6144011  71.7539423  31.1982061  30.6788443  72.2159830  32.0340232
  29.9054935  71.1236788  31.3264370  21.1161301  65.1180631  28.7231060
  21.3669339  66.0027641  28.9888636  21.6520849  64.9385233  27.9506152
  44.9393400  68.5494128  25.3906322  44.1857109  67.9801526  25.2350326
  45.0740942  68.5156793  26.3376956  30.3292028  73.4207531  21.0661041
  30.1937703  74.2659066  21.4945889  30.8701841  73.6226808  20.3026975
  26.8159368  59.4999111  37.7275396  26.4226314  58.9465309  38.4023040
  27.6325508  59.8109689  38.1181914  23.7821426  70.9382969  21.6388966
  24.2945946  71.7326219  21.7894531  24.4344139  70.2409259  21.5722567
  25.5916310  74.0548725  23.7211719  25.7682939  74.9766690  23.5332703
  26.3873144  73.7407144  24.1506099  29.7327329  60.9156990  35.3195653
  30.4737042  61.5164143  35.2400115  29.9645252  60.1734627  34.7613695
  24.8768667  66.1013357  33.5973882  24.7622182  65.1998614  33.8980981
  24.0213185  66.3477054  33.2458699  31.9560505  74.0431097  35.1961383
  31.5124359  73.2567476  34.8782287  32.6177718  74.2310248  34.5305274
  26.7147626  75.5726899  29.7222061  27.2655051  75.4443962  28.9499055
  25.8759102  75.8721788  29.3716954  34.0541743  74.3233897  33.2242784
  34.0360218  75.1442778  32.7323053  34.9761663  74.1987972  33.4492925
  30.5114797  71.8378027  34.0666293  31.0443134  71.0766315  33.8365601
  29.9828878  71.5451678  34.8090447  33.6784492  56.9438093  29.5959934
  33.3348761  57.8339734  29.5199045  34.0463455  56.7539750  28.7329519
  21.7470343  69.2671623  22.4148536  22.5845565  69.6768631  22.1982244
  21.9248610  68.3271065  22.3848730  33.6434775  66.9346704  18.1032369
  33.1281398  67.7051308  18.3420757  33.3712083  66.2611840  18.7265431
  31.2281886  61.7796404  23.1617608  30.3723482  61.3903255  22.9823247
  31.6408837  61.8588365  22.3017393  32.7581032  59.3142748  27.5609168
  32.2545828  59.2772883  26.7476973  33.0511639  60.2235490  27.6205824
  29.0023918  59.3981477  26.5675349  29.8676915  59.2024286  26.2081239
  29.0701427  59.1691829  27.4944706  38.6169049  69.6879058  20.0385543
  37.8398492  69.3490218  19.5940705  39.2960530  69.6931681  19.3640508
  33.4321078  64.8073796  19.9292151  33.1271213  65.1219945  20.7802294
  34.3851520  64.8855216  19.9719484  31.8767510  70.9664019  21.5785105
  31.3488871  70.2316779  21.2658342  31.3755012  71.7438695  21.3325073
  36.8560356  69.1613040  26.6952151  36.1984030  69.8512301  26.7832280
  37.6600755  69.5509471  27.0386137  26.6086237  61.6283685  23.9391716
  27.1829989  61.4058867  23.2064909  27.1957220  61.6972380  24.6920317
  35.6665814  67.5157412  24.7456093  36.1797696  68.1487404  25.2477802
  36.3167038  66.9158608  24.3799453  26.9355824  63.6588146  17.9587601
  26.0993137  63.9962833  18.2796876  26.7960594  63.5237126  17.0214738
  28.9108905  58.5024934  22.6666786  28.2573317  58.1873951  22.0423400
  28.8689379  57.8800675  23.3926608  30.0220110  68.7844229  14.5820078
  29.1147172  68.5533483  14.7811227  30.5191142  67.9881849  14.7694059
  32.9288189  77.4941737  17.5016764  32.2549887  77.7973433  18.1101722
  33.3154011  78.2970817  17.1522221  32.1446645  64.9906868  26.9914433
  31.2269207  65.2121815  26.8336121  32.5606789  65.0653178  26.1326141
  32.9281693  66.3898283  22.1217113  33.6753512  66.9019681  21.8124235
  33.1973283  66.0682336  22.9821507  31.2008343  68.8856824  19.1044068
  30.2919563  68.6015857  19.2016537  31.2303427  69.3055903  18.2447375
  36.4327611  72.4963414  22.8735235  35.9789938  71.6554324  22.9300426
  35.8021577  73.1324812  23.2110015  35.3760530  63.4255400  24.1035903
  34.6383287  62.9132786  24.4346145  35.6287304  62.9855781  23.2919180
  34.8760550  74.3339910  23.8085053  35.1683524  74.8944967  23.0897419
  35.3859171  74.6268471  24.5638213  35.4772158  56.2031652  24.6977672
  35.7831034  55.3429015  24.4103587  36.2024762  56.7949272  24.4976666
  21.7696514  66.6062338  23.0859270  21.5720913  66.0131699  22.3610336
  21.2143178  66.3014548  23.8035209  29.7493237  66.4985445  25.2053863
  29.8041847  65.5459281  25.1296340  28.9384439  66.6544884  25.6895161
  30.8984431  70.4265568  16.4432146  30.4603861  69.7101427  15.9837784
  31.6394872  70.6541683  15.8817238  27.6885597  65.1162505  22.9644242
  26.8753463  65.4156675  23.3709434  28.1844591  64.7218193  23.6818724
  29.8394175  75.1120261  24.8978507  29.7970354  75.3381108  23.9687039
  30.7556874  74.8783636  25.0464308  33.2859809  65.5804329  31.7959136
  33.6409197  65.8075802  32.6553602  33.9331940  65.9122706  31.1736391
  39.0157546  68.7022765  22.5008465  38.8775444  68.8924361  21.5729654
  38.6593765  69.4642148  22.9576516  27.1799672  62.6880860  28.5805477
  27.8199051  62.5469619  27.8828440  26.3477203  62.4015373  28.2044079
  39.0426925  70.7699292  27.5119736  39.4763432  70.6774581  28.3602790
  39.7558506  70.7456792  26.8739752  27.9559976  71.9883290  24.6940469
  28.7500574  71.4933611  24.4923044  27.2451668  71.4601154  24.3308175
  32.7754820  74.3701386  29.0452837  32.8291843  74.9392322  29.8130553
  31.9069602  74.5403271  28.6806874  24.2642739  66.1326372  20.7700222
  23.3340327  66.0710828  20.9870184  24.3600211  65.6102325  19.9736863
  24.1828288  62.6581185  23.3578464  24.4435106  63.5726518  23.2487624
  25.0045461  62.1905628  23.5075077  25.6553214  64.0718942  30.5277288
  26.3276267  63.8636304  29.8789937  24.8283000  63.8741028  30.0882521
  39.9042475  70.8122993  30.0452622  40.0978365  71.7168803  30.2911897
  39.8043093  70.3530412  30.8791207  31.5578786  60.6980883  32.5442949
  30.9106701  61.3970833  32.4507426  32.3279801  61.1317027  32.9119197
  34.9657584  70.9629735  35.6193502  34.8143090  70.7340287  34.7023586
  34.9562263  71.9200337  35.6324847  31.7342920  68.5361648  30.6039769
  32.6634980  68.6872808  30.4308736  31.3133950  68.6245669  29.7488415
  30.5331252  72.5612312  28.3738306  30.3942338  72.1931097  29.2464245
  29.7445848  73.0759952  28.2022264  31.1279404  77.6621409  19.7163843
  31.3031160  77.1909452  20.5309466  30.4412192  78.2887175  19.9445104
  32.0836467  71.9393915  25.7627144  31.7486300  71.8994685  26.6584794
  31.5840413  71.2738631  25.2897554  26.0580711  67.3461545  31.2879725
  25.9200509  66.6141784  31.8891264  26.9685634  67.2570445  31.0063913
  35.0195659  69.2849949  16.0364204  34.4024829  68.5596778  15.9397257
  34.5512147  70.0459310  15.6931278  28.6863012  67.0581505  30.7763405
  29.3962630  66.4174697  30.7350023  28.6432320  67.3094399  31.6989586
  36.6749790  73.9948858  33.6969984  36.6162337  73.3108078  33.0300567
  37.0769309  74.7367848  33.2450610  27.3991946  64.0446722  32.5959045
  26.8629303  63.5937461  33.2480641  26.8108654  64.1792631  31.8529509
  25.6940489  80.8110772  26.4903703  25.9337087  81.4429296  27.1682722
  24.8509686  80.4598812  26.7769062  26.8094205  63.5035374  15.1585508
  25.9323671  63.3824175  14.7947755  27.2851958  62.7121452  14.9064397
  36.6767198  71.9588442  31.9283964  35.7893976  71.6214364  32.0510363
  37.2465749  71.2271473  32.1652729  18.3296345  68.2912534  25.2527015
  19.0167385  67.9774264  24.6648031  18.1744473  69.1953898  24.9794267
  23.1331067  63.1802730  29.6812039  23.0489256  62.5728400  28.9462449
  22.3113773  63.6711748  29.6821535  30.2068351  76.6189894  28.8945207
  30.1338523  77.4244866  29.4064512  29.7645744  76.8181860  28.0693229
  29.9958131  75.8561664  22.4048029  29.2125653  76.3983344  22.4986253
  30.6950876  76.3735644  22.8042270  33.3054781  61.6656294  25.0482234
  33.8023480  60.9126256  24.7283304  32.5341762  61.7020610  24.4825443
  41.1584538  67.3696659  26.6900526  41.1474414  68.2521375  26.3194459
  40.2901918  67.0168210  26.4955063  32.6667035  76.5176728  31.0503366
  33.3795007  77.1524193  30.9779267  32.1757063  76.6140594  30.2343368
  34.3884561  70.4227981  22.6220657  33.4540840  70.5429443  22.4525362
  34.5661230  69.5200448  22.3580667  29.8889750  63.8073677  24.7753919
  29.5187537  63.2544717  25.4634824  30.3848842  63.2031810  24.2228919
  37.7757113  66.2645300  23.1570692  38.2417565  67.0973292  23.0830994
  38.2264613  65.7990282  23.8615950  27.7178948  74.2671172  31.8708937
  28.4188408  74.9007655  32.0238331  27.2474063  74.6085903  31.1104576
  35.8433344  72.6089121  20.1556844  36.1193188  72.4945716  21.0650718
  34.9737843  72.2106606  20.1169017  35.7473776  58.6325887  27.1961593
  34.8336855  58.8630114  27.3643800  36.1766877  58.7164331  28.0475625
  35.5180234  66.8215779  29.6961487  34.8651684  67.0691687  29.0413940
  35.8960614  66.0079917  29.3623964  32.4787408  76.8575472  23.7989657
  32.6609802  76.0397128  24.2617410  33.3020394  77.0743165  23.3614547
  32.8129573  75.7843657  21.0604706  33.3417340  75.2736112  20.4474868
  33.0757793  75.4686188  21.9250239  31.5667807  67.5635590  36.1827524
  30.8908444  67.4629719  36.8529899  32.3895441  67.4074804  36.6463521
  23.3146666  73.8007527  28.8040039  23.9000103  73.0551215  28.9367943
  23.1171505  74.1111483  29.6876703  26.1685321  76.8358774  23.8202482
  25.4995697  77.3204902  23.3366522  26.0298191  77.0827995  24.7345860
  17.9064321  66.3713127  27.5244482  17.9448420  65.8376718  28.3181601
  17.4004614  65.8448332  26.9055460  30.3090590  78.8702518  30.4185140
  30.8608898  79.0334139  31.1834225  30.6496783  79.4606955  29.7465165
  25.2855083  61.2177667  31.0207025  25.3496410  62.0792498  30.6084422
  25.2222203  60.6051669  30.2879383  24.7607356  63.2900800  34.6680059
  25.3879395  62.9077877  35.2817583  23.9035275  63.0715002  35.0335751
  35.1601464  73.6963775  36.2733794  35.7041368  74.3093733  35.7788749
  34.5788309  74.2543354  36.7900807  21.5372898  65.0977229  20.5998414
  21.8326340  64.1887907  20.5465468  20.6360934  65.0764968  20.2779416
  33.4458977  76.8184493  27.4048822  33.3210117  76.0174233  26.8959768
  34.1038068  77.3130686  26.9162792  25.0667145  63.1733226  26.5825962
  24.3453731  63.7869193  26.4433436  25.8560401  63.7090990  26.5042608
  35.5093886  74.6193513  29.0328372  34.5624221  74.4998864  28.9606699
  35.8576659  73.7316011  29.1154634  27.8693459  60.5087652  32.8566614
  28.3927861  60.7549949  33.6192923  27.6505792  61.3407687  32.4369752
  23.2660740  62.7791327  20.7237739  22.9373446  61.8988706  20.5412845
  23.6200111  62.7238995  21.6114128  32.5140319  74.4146229  25.2332725
  32.3665281  73.4862937  25.4140295  33.3393812  74.4366320  24.7489800
  26.3802563  63.0664296  21.0913217  26.7198636  63.5950218  20.3691825
  26.8274684  63.4044703  21.8671783  36.1174441  75.2374788  26.3197597
  37.0420988  75.0317649  26.1822048  35.9489744  74.9891189  27.2286939
  29.0746004  61.4501347  30.5416285  28.7342824  60.6509160  30.9436965
  28.3685010  61.7503058  29.9693118  29.7262476  58.5350660  28.9943608
  30.5488545  58.0611138  28.8722498  29.9700539  59.3141143  29.4942294
  28.3670710  61.5638918  19.2906509  29.0879073  61.9420171  18.7870226
  27.7436014  62.2827795  19.3941487  32.5101833  62.2684067  20.2264842
  32.7265448  63.1508705  19.9253670  32.0295900  61.8770280  19.4970484
  27.2501055  65.2269780  26.8035586  27.1045635  65.5410083  27.6959868
  26.7726258  65.8454681  26.2506485  29.1097437  62.2172328  26.8516476
  29.0959006  61.3213422  26.5148774  29.8269866  62.2242992  27.4854762
  30.9623568  62.6509668  28.8969603  30.7041346  63.5726739  28.8953934
  30.4308609  62.2540103  29.5870067  35.9069757  75.7560456  21.6759689
  36.0806634  75.1906878  20.9233541  36.3998648  76.5561350  21.4939179
  21.7246717  67.7675125  29.7423248  21.1800185  68.5434933  29.8743522
  22.6026067  68.1145929  29.5842369  28.5134333  61.0986709  22.1204046
  28.6350245  60.1703355  22.3194934  28.2236376  61.1125395  21.2082361
  31.3825524  58.7841619  25.2570766  31.4047221  58.8480952  24.3022745
  31.7993583  57.9446128  25.4511272  41.7609148  68.5196879  23.2949988
  42.2040294  67.7704204  22.8969112  40.8835658  68.5107015  22.9123720
  36.8944929  75.0727220  18.7756587  37.5895834  75.6933913  18.9943902
  37.2368080  74.2222571  19.0508965  22.5112739  66.8945021  32.6353404
  21.7694475  67.0427656  33.2218035  22.1905483  67.1553287  31.7720154
  38.7936353  72.5226926  20.3043918  39.3187677  72.8614198  19.5793238
  38.7058705  71.5873941  20.1207052  30.4556401  76.4360999  32.4333794
  30.7643528  76.1910146  33.3056494  31.2531883  76.6407638  31.9452665
  30.4777013  78.5898909  24.6639171  30.0382004  78.0975288  25.3572028
  31.2285130  78.0471876  24.4231246  22.9569352  74.7810450  24.6663799
  23.7827372  74.4814222  24.2862443  22.6063404  74.0118072  25.1153588
  27.9250885  74.1336918  26.7361473  27.3030895  73.4707623  26.4363700
  28.5955752  74.1598050  26.0535120  21.1577957  72.6996776  25.6252733
  20.3209866  72.2718950  25.4436734  21.1301603  72.8929219  26.5623524
  27.9975413  62.6118706  36.3293979  28.0463568  63.4880829  35.9471748
  28.5397927  62.0696099  35.7565622  38.4830259  73.1559829  35.6095116
  37.6925802  73.1383968  35.0699615  38.2463613  73.6948123  36.3644152
  38.6028134  70.0052296  32.9227844  38.6526139  69.8402303  33.8643367
  38.4942057  69.1379555  32.5325725  27.4864392  72.6840841  20.2119933
  27.6352513  73.3676306  19.5586606  28.2930836  72.6645931  20.7269389
  35.8931896  65.9883224  34.2387151  36.7941759  65.8489688  33.9471149
  35.9679871  66.1537678  35.1785328  30.2274701  63.3650078  33.0840337
  29.3578011  63.6583644  32.8122926  30.4634182  63.9490523  33.8047601
  40.1046331  72.4249237  33.1669866  39.8131139  72.7879218  34.0033327
  39.4918462  71.7116245  32.9883198  41.3042013  69.9902117  25.6872436
  42.1388904  70.4291921  25.8509996  41.4401142  69.5140770  24.8680682
  38.3533519  67.5481852  31.6349924  38.8287640  67.7409498  30.8268775
  37.4299084  67.6041038  31.3893307  25.2417025  68.7106019  21.2181002
  24.9963067  67.8068349  21.4161212  25.4112940  68.7123169  20.2760480
  32.9313735  59.5829695  30.6005758  33.4495679  60.3190722  30.2752246
  32.5768868  59.8893689  31.4352517  24.5112673  64.4434376  18.7167164
  23.8181918  64.5178731  18.0607200  24.2664425  63.6794720  19.2388680
  33.1826329  56.0029978  26.1206654  33.4628083  55.3353167  26.7467081
  33.9676936  56.1959073  25.6081318  30.9859798  75.1788972  17.6831681
  30.4133765  75.7979159  17.2302152  31.5592592  75.7288333  18.2171603
  37.0535188  64.4247612  29.8678229  38.0052611  64.5245709  29.8890453
  36.8838638  63.6325880  30.3776314  35.0749567  61.5103195  30.0537630
  34.4799499  61.7908208  29.3584119  34.7899264  61.9997096  30.8254371
  34.2057058  75.4626122  18.8140263  35.1387731  75.3971683  19.0173138
  34.1180271  76.2982389  18.3554796  36.8345074  74.7791992  15.7744210
  36.7558706  74.4451856  16.6679968  37.6554741  75.2713760  15.7735683
  39.5323266  67.6453731  28.9820529  39.4999586  66.7069732  29.1680213
  40.1423889  67.7237768  28.2486354  31.3706596  66.5149784  15.0247733
  32.3165701  66.3855993  15.0936151  30.9920841  65.7764446  15.5017161
  39.6817754  64.4364775  29.0278812  39.1656803  63.6523232  28.8408741
  40.5657703  64.1083492  29.1925332  37.3428481  58.1805790  24.9874625
  37.1453302  57.8720879  25.8717957  37.9528187  58.9067429  25.1172555
  45.3499815  68.7069738  28.1226566  46.0803204  68.4455026  28.6834269
  44.7406761  67.9698460  28.1628634  43.4315113  66.8477601  28.7201017
  42.7048276  66.7133566  28.1117509  43.0162399  67.1554430  29.5257735
  31.2545289  70.5667531  36.4848390  32.1748298  70.7446130  36.6788437
  31.2194872  69.6223576  36.3328089  29.5549514  64.4399761  14.9602618
  28.6480969  64.1432874  15.0365332  29.8325495  64.1429579  14.0936905
  20.4727454  65.7606124  25.4101665  20.1530238  64.9071432  25.1176039
  19.9260882  65.9754702  26.1659632  24.2507361  68.4768565  29.1271171
  24.4693371  69.4085673  29.1459205  24.6633135  68.1176540  29.9125975
  31.1711579  58.9836651  21.1146860  30.3612308  58.6383736  21.4902106
  31.8595996  58.6744194  21.7034471  33.1002128  58.0614697  22.7371156
  33.6533166  58.4810151  23.3961179  33.3372214  57.1350445  22.7794112
  29.1235227  64.0501771  38.5173920  29.0231954  64.9996128  38.4486011
  28.9056769  63.7220010  37.6449990  28.3248298  61.2986696  15.1014598
  29.1867462  61.6241594  15.3610415  28.5098642  60.5118192  14.5887663
  20.3415714  69.3809036  27.3794786  19.6479185  68.9662989  26.8664741
  21.0888705  69.4229572  26.7828205  36.4780935  60.1715223  22.2449821
  35.8979604  60.8300027  21.8627873  36.2116867  59.3492567  21.8337238
  34.9284501  59.5720280  24.4471141  35.4284279  59.6836815  23.6385460
  35.5720109  59.2681333  25.0871949  28.9866497  67.4798910  37.3338982
  28.5033579  68.2799270  37.5402871  29.0727436  67.4906855  36.3806426
  22.2552456  69.3127290  25.2560801  22.2323145  69.4114977  24.3042684
  22.5653093  70.1592440  25.5777967  24.9139834  71.3703445  29.3707416
  25.8683088  71.3387387  29.3037347  24.7152358  70.9094068  30.1857641
  25.5039216  69.9404561  31.9378213  26.3232105  70.4348639  31.9613051
  25.7776024  69.0236529  31.9095781  35.2605813  62.3315313  21.3006169
  34.3731668  62.6164964  21.0826364  35.6759802  62.1709076  20.4533446
  38.6120349  62.3561834  25.0160508  39.3880739  62.8458286  25.2885125
  37.8868483  62.7819888  25.4732378  41.0492907  63.0689453  26.0734449
  41.6437398  62.8285189  25.3627757  41.1219491  62.3496584  26.7007985
  23.2690063  76.9123064  26.3877613  23.1344531  76.1523465  25.8215612
  22.8522125  77.6363964  25.9206402  34.4049026  72.0959988  15.3954189
  35.1084876  72.3009990  16.0111844  33.6811675  72.6636749  15.6603272
  35.2346836  67.8469849  21.5156459  35.1782038  68.3038400  20.6764091
  35.7875179  67.0860533  21.3379302  39.0451642  63.6359581  22.3406578
  38.7888577  63.2356216  23.1714786  38.4204510  64.3503375  22.2156718
  43.3563980  66.3755654  24.8477870  42.7963538  66.4448843  25.6209432
  42.7507484  66.1996639  24.1277366  26.4259189  77.8092381  26.5996056
  26.3091573  78.7537814  26.4974746  25.6051635  77.5065943  26.9881855
  36.3135724  72.5342517  17.4452649  37.1481327  72.1023715  17.2630124
  36.1520066  72.3624530  18.3729543  35.9681616  69.0374630  18.8108988
  35.9130420  68.8718902  17.8697432  35.3427671  69.7450663  18.9671178
  20.7574131  64.2742694  32.6370410  21.4032994  63.7641648  33.1257635
  20.5491282  65.0111376  33.2113836  33.2827523  71.3423542  38.1362551
  34.1518683  71.5164194  37.7749186  32.8034274  72.1617959  38.0138280
  29.2777741  58.5382739  18.3894307  29.2656411  59.4824579  18.5462577
  30.1701163  58.3552884  18.0953768  27.4513703  78.4620643  29.8151985
  28.3540950  78.4944253  30.1318479  27.2251073  77.5321094  29.8298320
  29.2067305  77.2151629  26.4762063  28.2562936  77.2153491  26.3626435
  29.5099791  76.4684364  25.9598098  33.0929861  55.1325516  22.6440243
  32.3262256  54.5784002  22.7896926  33.5040566  55.2047384  23.5054395
  25.0971622  61.4210312  36.7345425  25.9603083  61.0647116  36.9448749
  24.5237032  61.0824206  37.4220829  44.9419999  83.0512168  27.5407826
  45.5798409  82.9318915  26.8371166  44.8240842  83.9993012  27.5995778
  41.7509705  83.0039596  27.4769350  41.4128216  82.8880661  26.5889885
  42.6199473  82.6030761  27.4570356  37.6096521  84.8575072  23.4666241
  37.0461386  84.7665009  22.6982529  37.4948916  84.0374977  23.9468734
  42.2329488  84.1574448  33.4355556  42.2218129  83.7627246  32.5636059
  42.3950127  83.4240520  34.0289327  35.1560953  86.3526264  26.3050462
  35.9482244  86.0117089  25.8896761  35.3957603  86.4621239  27.2252615
  43.1896079  88.5246040  18.7780706  42.5384059  89.1100121  18.3914720
  43.9840442  89.0552235  18.8375744  37.1151706  85.6135177  19.1767840
  37.8882582  85.0664164  19.0380716  37.4677105  86.4779427  19.3882302
  38.9536749  86.9411560  32.3834740  38.6626615  87.8457190  32.2681406
  39.5893733  86.9828087  33.0978809  39.8792956  84.3188408  28.9736099
  40.4756528  84.0944430  28.2593062  39.9367927  83.5773154  29.5761547
  39.4517984  81.7727843  16.8086290  39.7043505  81.2509365  16.0469753
  38.5142543  81.6093989  16.9112974  44.4961267  80.7763622  24.6161034
  45.2824356  80.3583045  24.2651451  44.7599971  81.6809714  24.7842682
  44.6671344  86.2136472  19.3149690  44.0317177  86.2871099  20.0270595
  44.3368751  86.8030071  18.6368770  49.8969694  80.7138855  25.5194012
  50.6294866  80.1438072  25.7531842  49.1409050  80.3260455  25.9600518
  39.1714273  83.6755949  19.0110665  39.0550531  83.0000853  19.6791750
  39.2816533  83.1888323  18.1942818  41.5145814  83.1366096  22.7157355
  41.1504021  82.6096717  23.4270276  42.3712930  82.7464565  22.5423840
  47.4195115  74.4260429  29.9788621  47.0878439  75.2955840  29.7549836
  46.8240728  74.1096713  30.6582651  41.1551301  78.1655996  17.7118703
  41.3225703  79.0336233  18.0789174  40.9648470  78.3283278  16.7879992
  43.9126634  86.6272975  29.3784533  43.6127357  87.5298014  29.2700341
  43.5677694  86.3605158  30.2305686  37.3639116  83.0786772  25.4121238
  36.4389612  82.9462986  25.6198930  37.6123529  83.8580991  25.9091180
  47.3123778  79.1455515  27.0581971  46.4040655  79.0770924  26.7640732
  47.2611374  79.6227460  27.8863796  41.1340522  80.6213654  18.6965370
  41.0140147  81.0670704  19.5350850  40.4393110  80.9698971  18.1378908
  34.7247927  82.7220045  26.2465027  34.8540308  82.9754524  27.1604439
  34.0445378  83.3147753  25.9269682  38.8947414  93.3917295  22.3455501
  38.8171444  94.3425120  22.4243982  38.2909058  93.0463168  23.0030427
  41.3864644  80.5645161  35.0016868  40.6097978  81.1239081  34.9919733
  42.0255207  81.0501944  35.5231738  49.1785424  77.3471954  28.8359845
  48.5359805  77.6404487  28.1899639  48.6740353  77.2324874  29.6413041
  46.8325588  81.0935127  19.5245704  47.7443444  81.3262514  19.3493401
  46.3235235  81.6772171  18.9620783  39.6411016  83.3730614  34.5634835
  40.3825700  83.9115658  34.2869659  38.9348001  83.9996903  34.7206387
  45.1166356  85.5159755  33.1606997  45.5249712  85.0742165  32.4161629
  44.3943617  84.9412382  33.4141189  41.4697426  80.4532361  30.5340553
  42.3158621  80.8771775  30.6775202  41.4096063  79.7965986  31.2279117
  45.4395170  86.0760945  26.9159285  44.8104033  86.2406659  26.2135353
  45.0520832  86.4902555  27.6870249  49.3184402  87.0115383  24.2703649
  48.6335440  87.3914284  23.7200682  49.4028252  87.6210710  25.0035597
  44.6196871  78.1136730  32.1921727  44.3757803  78.8678790  31.6556003
  44.8956802  78.4922077  33.0268974  46.5735334  84.6575342  30.8698993
  46.7852229  85.3007102  30.1933374  46.5265082  83.8237659  30.4020923
  44.1761563  77.2693163  27.7735565  43.3146042  77.5674416  28.0652302
  44.2023997  77.4863562  26.8416597  40.9923132  85.8135353  24.1809371
  41.4561478  86.0923056  23.3913993  40.7279930  84.9118798  23.9982461
  37.8847213  85.3606835  27.1189134  38.4548570  85.7894103  26.4806618
  38.4755325  85.0789420  27.8173319  39.9292018  81.9358506  20.9898936
  40.6316062  82.3879549  21.4572862  39.5972647  81.2942325  21.6178829
  38.3772380  80.5270262  35.3650145  37.7471040  81.2086543  35.5985542
  38.2708468  80.4153344  34.4203283  33.6717352  80.1942058  26.2916069
  32.8816406  80.4499587  25.8156180  34.1628600  81.0090396  26.3968110
  47.6881162  87.5347298  29.0421350  48.5098605  87.1327485  28.7604032
  47.6843565  87.4315532  29.9937466  35.6232098  80.5586638  23.2499546
  34.8263261  80.6705332  23.7683042  35.3957690  80.8973290  22.3840436
  41.4537765  87.0831341  31.1982061  41.5182198  87.5451748  32.0340232
  40.7448689  86.4528706  31.3264370  31.9555055  80.4472549  28.7231060
  32.2063094  81.3319559  28.9888636  32.4914604  80.2677150  27.9506152
  55.7787155  83.8786046  25.3906322  55.0250863  83.3093444  25.2350326
  55.9134696  83.8448711  26.3376956  41.1685783  88.7499448  21.0661041
  41.0331458  89.5950984  21.4945889  41.7095595  88.9518726  20.3026975
  37.6553122  74.8291028  37.7275396  37.2620068  74.2757227  38.4023040
  38.4719263  75.1401607  38.1181914  34.6215180  86.2674886  21.6388966
  35.1339701  87.0618137  21.7894531  35.2737893  85.5701177  21.5722567
  36.4310065  89.3840643  23.7211719  36.6076693  90.3058607  23.5332703
  37.2266898  89.0699062  24.1506099  40.5721083  76.2448907  35.3195653
  41.3130797  76.8456060  35.2400115  40.8039006  75.5026545  34.7613695
  35.7162421  81.4305275  33.5973882  35.6015937  80.5290532  33.8980981
  34.8606939  81.6768971  33.2458699  42.7954259  89.3723015  35.1961383
  42.3518113  88.5859393  34.8782287  43.4571473  89.5602165  34.5305274
  37.5541380  90.9018816  29.7222061  38.1048806  90.7735880  28.9499055
  36.7152856  91.2013705  29.3716954  44.8935497  89.6525815  33.2242784
  44.8753973  90.4734696  32.7323053  45.8155417  89.5279890  33.4492925
  41.3508551  87.1669944  34.0666293  41.8836888  86.4058232  33.8365601
  40.8222633  86.8743596  34.8090447  44.5178246  72.2730010  29.5959934
  44.1742516  73.1631652  29.5199045  44.8857209  72.0831668  28.7329519
  32.5864097  84.5963541  22.4148536  33.4239319  85.0060549  22.1982244
  32.7642365  83.6562983  22.3848730  44.4828529  82.2638621  18.1032369
  43.9675153  83.0343226  18.3420757  44.2105838  81.5903757  18.7265431
  42.0675640  77.1088322  23.1617608  41.2117237  76.7195172  22.9823247
  42.4802592  77.1880283  22.3017393  43.5974787  74.6434665  27.5609168
  43.0939582  74.6064801  26.7476973  43.8905394  75.5527408  27.6205824
  39.8417673  74.7273395  26.5675349  40.7070669  74.5316204  26.2081239
  39.9095182  74.4983747  27.4944706  49.4562803  85.0170976  20.0385543
  48.6792246  84.6782135  19.5940705  50.1354284  85.0223599  19.3640508
  44.2714832  80.1365713  19.9292151  43.9664968  80.4511863  20.7802294
  45.2245274  80.2147133  19.9719484  42.7161264  86.2955937  21.5785105
  42.1882626  85.5608696  21.2658342  42.2148767  87.0730613  21.3325073
  47.6954110  84.4904957  26.6952151  47.0377785  85.1804219  26.7832280
  48.4994509  84.8801389  27.0386137  37.4479992  76.9575603  23.9391716
  38.0223744  76.7350785  23.2064909  38.0350974  77.0264298  24.6920317
  46.5059569  82.8449330  24.7456093  47.0191451  83.4779322  25.2477802
  47.1560793  82.2450525  24.3799453  37.7749579  78.9880064  17.9587601
  36.9386891  79.3254751  18.2796876  37.6354349  78.8529044  17.0214738
  39.7502659  73.8316852  22.6666786  39.0967072  73.5165869  22.0423400
  39.7083134  73.2092592  23.3926608  40.8613864  84.1136147  14.5820078
  39.9540926  83.8825400  14.7811227  41.3584896  83.3173766  14.7694059
  43.7681943  92.8233654  17.5016764  43.0943642  93.1265351  18.1101722
  44.1547765  93.6262735  17.1522221  42.9840400  80.3198785  26.9914433
  42.0662961  80.5413732  26.8336121  43.4000543  80.3945096  26.1326141
  43.7675448  81.7190201  22.1217113  44.5147267  82.2311598  21.8124235
  44.0367037  81.3974254  22.9821507  42.0402098  84.2148742  19.1044068
  41.1313317  83.9307775  19.2016537  42.0697182  84.6347820  18.2447375
  47.2721365  87.8255331  22.8735235  46.8183692  86.9846241  22.9300426
  46.6415332  88.4616730  23.2110015  46.2154285  78.7547317  24.1035903
  45.4777042  78.2424704  24.4346145  46.4681058  78.3147699  23.2919180
  45.7154304  89.6631828  23.8085053  46.0077279  90.2236885  23.0897419
  46.2252925  89.9560389  24.5638213  46.3165912  71.5323569  24.6977672
  46.6224789  70.6720933  24.4103587  47.0418517  72.1241190  24.4976666
  32.6090268  81.9354256  23.0859270  32.4114668  81.3423617  22.3610336
  32.0536932  81.6306466  23.8035209  40.5886992  81.8277362  25.2053863
  40.6435602  80.8751199  25.1296340  39.7778194  81.9836802  25.6895161
  41.7378186  85.7557486  16.4432146  41.2997616  85.0393344  15.9837784
  42.4788626  85.9833600  15.8817238  38.5279352  80.4454422  22.9644242
  37.7147217  80.7448593  23.3709434  39.0238346  80.0510111  23.6818724
  40.6787930  90.4412179  24.8978507  40.6364108  90.6673025  23.9687039
  41.5950628  90.2075554  25.0464308  44.1253563  80.9096247  31.7959136
  44.4802951  81.1367720  32.6553602  44.7725695  81.2414623  31.1736391
  49.8551300  84.0314683  22.5008465  49.7169199  84.2216279  21.5729654
  49.4987519  84.7934065  22.9576516  38.0193426  78.0172778  28.5805477
  38.6592806  77.8761537  27.8828440  37.1870957  77.7307291  28.2044079
  49.8820680  86.0991210  27.5119736  50.3157187  86.0066499  28.3602790
  50.5952261  86.0748710  26.8739752  38.7953730  87.3175208  24.6940469
  39.5894329  86.8225528  24.4923044  38.0845423  86.7893071  24.3308175
  43.6148575  89.6993304  29.0452837  43.6685597  90.2684240  29.8130553
  42.7463356  89.8695189  28.6806874  35.1036494  81.4618290  20.7700222
  34.1734082  81.4002745  20.9870184  35.1993966  80.9394243  19.9736863
  35.0222043  77.9873103  23.3578464  35.2828860  78.9018436  23.2487624
  35.8439215  77.5197545  23.5075077  36.4946968  79.4010860  30.5277288
  37.1670022  79.1928222  29.8789937  35.6676755  79.2032946  30.0882521
  50.7436230  86.1414910  30.0452622  50.9372120  87.0460721  30.2911897
  50.6436848  85.6822329  30.8791207  42.3972540  76.0272801  32.5442949
  41.7500455  76.7262750  32.4507426  43.1673556  76.4608945  32.9119197
  45.8051338  86.2921653  35.6193502  45.6536845  86.0632205  34.7023586
  45.7956018  87.2492254  35.6324847  42.5736675  83.8653566  30.6039769
  43.5028735  84.0164725  30.4308736  42.1527705  83.9537587  29.7488415
  41.3725006  87.8904230  28.3738306  41.2336092  87.5223015  29.2464245
  40.5839603  88.4051870  28.2022264  41.9673158  92.9913327  19.7163843
  42.1424914  92.5201370  20.5309466  41.2805946  93.6179093  19.9445104
  42.9230222  87.2685833  25.7627144  42.5880054  87.2286603  26.6584794
  42.4234167  86.6030549  25.2897554  36.8974466  82.6753463  31.2879725
  36.7594263  81.9433702  31.8891264  37.8079389  82.5862363  31.0063913
  45.8589413  84.6141867  16.0364204  45.2418584  83.8888695  15.9397257
  45.3905902  85.3751227  15.6931278  39.5256766  82.3873422  30.7763405
  40.2356385  81.7466614  30.7350023  39.4826074  82.6386317  31.6989586
  47.5143545  89.3240776  33.6969984  47.4556091  88.6399996  33.0300567
  47.9163063  90.0659766  33.2450610  38.2385700  79.3738640  32.5959045
  37.7023057  78.9229379  33.2480641  37.6502409  79.5084549  31.8529509
  36.5334244  96.1402689  26.4903703  36.7730842  96.7721214  27.1682722
  35.6903440  95.7890729  26.7769062  37.6487959  78.8327291  15.1585508
  36.7717425  78.7116092  14.7947755  38.1245712  78.0413370  14.9064397
  47.5160952  87.2880359  31.9283964  46.6287731  86.9506281  32.0510363
  48.0859503  86.5563391  32.1652729  29.1690099  83.6204451  25.2527015
  29.8561139  83.3066181  24.6648031  29.0138228  84.5245816  24.9794267
  33.9724821  78.5094648  29.6812039  33.8883010  77.9020317  28.9462449
  33.1507528  79.0003666  29.6821535  41.0462106  91.9481812  28.8945207
  40.9732277  92.7536783  29.4064512  40.6039499  92.1473778  28.0693229
  40.8351885  91.1853582  22.4048029  40.0519407  91.7275262  22.4986253
  41.5344630  91.7027561  22.8042270  44.1448535  76.9948211  25.0482234
  44.6417235  76.2418174  24.7283304  43.3735517  77.0312528  24.4825443
  51.9978293  82.6988577  26.6900526  51.9868169  83.5813292  26.3194459
  51.1295672  82.3460128  26.4955063  43.5060789  91.8468646  31.0503366
  44.2188761  92.4816111  30.9779267  43.0150818  91.9432512  30.2343368
  45.2278316  85.7519899  22.6220657  44.2934595  85.8721361  22.4525362
  45.4054984  84.8492365  22.3580667  40.7283504  79.1365594  24.7753919
  40.3581292  78.5836635  25.4634824  41.2242596  78.5323728  24.2228919
  48.6150867  81.5937218  23.1570692  49.0811319  82.4265209  23.0830994
  49.0658368  81.1282199  23.8615950  38.5572703  89.5963089  31.8708937
  39.2582162  90.2299572  32.0238331  38.0867818  89.9377821  31.1104576
  46.6827098  87.9381039  20.1556844  46.9586942  87.8237634  21.0650718
  45.8131597  87.5398524  20.1169017  46.5867530  73.9617805  27.1961593
  45.6730610  74.1922032  27.3643800  47.0160632  74.0456249  28.0475625
  46.3573989  82.1507697  29.6961487  45.7045439  82.3983604  29.0413940
  46.7354368  81.3371835  29.3623964  43.3181162  92.1867390  23.7989657
  43.5003557  91.3689046  24.2617410  44.1414148  92.4035082  23.3614547
  43.6523328  91.1135575  21.0604706  44.1811094  90.6028030  20.4474868
  43.9151547  90.7978105  21.9250239  42.4061562  82.8927508  36.1827524
  41.7302199  82.7921637  36.8529899  43.2289195  82.7366722  36.6463521
  34.1540421  89.1299444  28.8040039  34.7393857  88.3843132  28.9367943
  33.9565259  89.4403401  29.6876703  37.0079076  92.1650692  23.8202482
  36.3389451  92.6496819  23.3366522  36.8691946  92.4119912  24.7345860
  28.7458075  81.7005045  27.5244482  28.7842175  81.1668635  28.3181601
  28.2398368  81.1740250  26.9055460  41.1484344  94.1994435  30.4185140
  41.7002652  94.3626057  31.1834225  41.4890538  94.7898873  29.7465165
  36.1248838  76.5469585  31.0207025  36.1890164  77.4084416  30.6084422
  36.0615958  75.9343587  30.2879383  35.6001110  78.6192718  34.6680059
  36.2273149  78.2369795  35.2817583  34.7429029  78.4006920  35.0335751
  45.9995219  89.0255693  36.2733794  46.5435123  89.6385651  35.7788749
  45.4182064  89.5835271  36.7900807  32.3766653  80.4269147  20.5998414
  32.6720094  79.5179825  20.5465468  31.4754689  80.4056886  20.2779416
  44.2852732  92.1476411  27.4048822  44.1603871  91.3466151  26.8959768
  44.9431823  92.6422604  26.9162792  35.9060900  78.5025143  26.5825962
  35.1847486  79.1161111  26.4433436  36.6954156  79.0382908  26.5042608
  46.3487640  89.9485431  29.0328372  45.4017976  89.8290782  28.9606699
  46.6970413  89.0607929  29.1154634  38.7087213  75.8379570  32.8566614
  39.2321615  76.0841866  33.6192923  38.4899547  76.6699605  32.4369752
  34.1054495  78.1083244  20.7237739  33.7767201  77.2280623  20.5412845
  34.4593865  78.0530913  21.6114128  43.3534073  89.7438147  25.2332725
  43.2059036  88.8154855  25.4140295  44.1787567  89.7658238  24.7489800
  37.2196318  78.3956214  21.0913217  37.5592390  78.9242135  20.3691825
  37.6668438  78.7336620  21.8671783  46.9568195  90.5666706  26.3197597
  47.8814743  90.3609567  26.1822048  46.7883499  90.3183107  27.2286939
  39.9139759  76.7793265  30.5416285  39.5736579  75.9801078  30.9436965
  39.2078765  77.0794976  29.9693118  40.5656230  73.8642577  28.9943608
  41.3882300  73.3903056  28.8722498  40.8094294  74.6433061  29.4942294
  39.2064465  76.8930836  19.2906509  39.9272827  77.2712089  18.7870226
  38.5829769  77.6119713  19.3941487  43.3495588  77.5975985  20.2264842
  43.5659202  78.4800623  19.9253670  42.8689655  77.2062198  19.4970484
  38.0894809  80.5561698  26.8035586  37.9439390  80.8702001  27.6959868
  37.6120013  81.1746598  26.2506485  39.9491192  77.5464246  26.8516476
  39.9352761  76.6505339  26.5148774  40.6663620  77.5534910  27.4854762
  41.8017323  77.9801586  28.8969603  41.5435101  78.9018657  28.8953934
  41.2702363  77.5832021  29.5870067  46.7463511  91.0852373  21.6759689
  46.9200389  90.5198796  20.9233541  47.2392403  91.8853268  21.4939179
  32.5640471  83.0967042  29.7423248  32.0193939  83.8726850  29.8743522
  33.4419821  83.4437847  29.5842369  39.3528088  76.4278626  22.1204046
  39.4743999  75.4995272  22.3194934  39.0630130  76.4417312  21.2082361
  42.2219278  74.1133537  25.2570766  42.2440975  74.1772870  24.3022745
  42.6387337  73.2738045  25.4511272  52.6002903  83.8488796  23.2949988
  53.0434049  83.0996121  22.8969112  51.7229413  83.8398933  22.9123720
  47.7338684  90.4019138  18.7756587  48.4289589  91.0225830  18.9943902
  48.0761834  89.5514489  19.0508965  33.3506493  82.2236939  32.6353404
  32.6088229  82.3719574  33.2218035  33.0299237  82.4845204  31.7720154
  49.6330107  87.8518843  20.3043918  50.1581431  88.1906116  19.5793238
  49.5452460  86.9165859  20.1207052  41.2950156  91.7652917  32.4333794
  41.6037282  91.5202064  33.3056494  42.0925638  91.9699555  31.9452665
  41.3170768  93.9190826  24.6639171  40.8775758  93.4267205  25.3572028
  42.0678885  93.3763794  24.4231246  33.7963107  90.1102367  24.6663799
  34.6221127  89.8106139  24.2862443  33.4457159  89.3409990  25.1153588
  38.7644640  89.4628836  26.7361473  38.1424649  88.7999541  26.4363700
  39.4349507  89.4889967  26.0535120  31.9971712  88.0288694  25.6252733
  31.1603620  87.6010868  25.4436734  31.9695357  88.2221137  26.5623524
  38.8369167  77.9410624  36.3293979  38.8857323  78.8172746  35.9471748
  39.3791682  77.3988017  35.7565622  49.3224013  88.4851747  35.6095116
  48.5319557  88.4675886  35.0699615  49.0857368  89.0240041  36.3644152
  49.4421888  85.3344213  32.9227844  49.4919893  85.1694221  33.8643367
  49.3335812  84.4671472  32.5325725  38.3258147  88.0132759  20.2119933
  38.4746267  88.6968223  19.5586606  39.1324590  87.9937849  20.7269389
  46.7325651  81.3175141  34.2387151  47.6335513  81.1781606  33.9471149
  46.8073625  81.4829596  35.1785328  41.0668456  78.6941996  33.0840337
  40.1971765  78.9875562  32.8122926  41.3027936  79.2782441  33.8047601
  50.9440085  87.7541155  33.1669866  50.6524893  88.1171135  34.0033327
  50.3312216  87.0408163  32.9883198  52.1435767  85.3194035  25.6872436
  52.9782659  85.7583839  25.8509996  52.2794896  84.8432688  24.8680682
  49.1927273  82.8773769  31.6349924  49.6681395  83.0701416  30.8268775
  48.2692839  82.9332955  31.3893307  36.0810780  84.0397937  21.2181002
  35.8356822  83.1360267  21.4161212  36.2506694  84.0415087  20.2760480
  43.7707490  74.9121613  30.6005758  44.2889434  75.6482640  30.2752246
  43.4162623  75.2185606  31.4352517  35.3506427  79.7726294  18.7167164
  34.6575672  79.8470649  18.0607200  35.1058179  79.0086638  19.2388680
  44.0220084  71.3321895  26.1206654  44.3021838  70.6645085  26.7467081
  44.8070691  71.5250991  25.6081318  41.8253552  90.5080889  17.6831681
  41.2527519  91.1271077  17.2302152  42.3986346  91.0580251  18.2171603
  47.8928942  79.7539529  29.8678229  48.8446365  79.8537627  29.8890453
  47.7232393  78.9617798  30.3776314  45.9143322  76.8395113  30.0537630
  45.3193254  77.1200125  29.3584119  45.6293018  77.3289014  30.8254371
  45.0450812  90.7918039  18.8140263  45.9781485  90.7263601  19.0173138
  44.9574025  91.6274306  18.3554796  47.6738829  90.1083910  15.7744210
  47.5952460  89.7743773  16.6679968  48.4948496  90.6005678  15.7735683
  50.3717020  82.9745649  28.9820529  50.3393340  82.0361650  29.1680213
  50.9817644  83.0529686  28.2486354  42.2100351  81.8441702  15.0247733
  43.1559456  81.7147910  15.0936151  41.8314596  81.1056364  15.5017161
  50.5211509  79.7656693  29.0278812  50.0050557  78.9815149  28.8408741
  51.4051457  79.4375409  29.1925332  48.1822235  73.5097708  24.9874625
  47.9847057  73.2012796  25.8717957  48.7921941  74.2359347  25.1172555
  56.1893570  84.0361656  28.1226566  56.9196958  83.7746944  28.6834269
  55.5800515  83.2990378  28.1628634  54.2708867  82.1769519  28.7201017
  53.5442031  82.0425484  28.1117509  53.8556154  82.4846347  29.5257735
  42.0939043  85.8959448  36.4848390  43.0142053  86.0738047  36.6788437
  42.0588626  84.9515494  36.3328089  40.3943268  79.7691679  14.9602618
  39.4874723  79.4724791  15.0365332  40.6719249  79.4721497  14.0936905
  31.3121208  81.0898042  25.4101665  30.9923993  80.2363350  25.1176039
  30.7654637  81.3046620  26.1659632  35.0901116  83.8060483  29.1271171
  35.3087126  84.7377591  29.1459205  35.5026890  83.4468457  29.9125975
  42.0105334  74.3128568  21.1146860  41.2006062  73.9675653  21.4902106
  42.6989751  74.0036112  21.7034471  43.9395882  73.3906615  22.7371156
  44.4926921  73.8102068  23.3961179  44.1765968  72.4642363  22.7794112
  39.9628981  79.3793689  38.5173920  39.8625708  80.3288046  38.4486011
  39.7450523  79.0511928  37.6449990  39.1642053  76.6278614  15.1014598
  40.0261217  76.9533512  15.3610415  39.3492397  75.8410110  14.5887663
  31.1809468  84.7100953  27.3794786  30.4872940  84.2954906  26.8664741
  31.9282459  84.7521490  26.7828205  47.3174689  75.5007140  22.2449821
  46.7373358  76.1591944  21.8627873  47.0510622  74.6784485  21.8337238
  45.7678256  74.9012198  24.4471141  46.2678034  75.0128732  23.6385460
  46.4113863  74.5973251  25.0871949  39.8260251  82.8090828  37.3338982
  39.3427333  83.6091188  37.5402871  39.9121190  82.8198772  36.3806426
  33.0946211  84.6419207  25.2560801  33.0716899  84.7406894  24.3042684
  33.4046847  85.4884358  25.5777967  35.7533589  86.6995362  29.3707416
  36.7076842  86.6679305  29.3037347  35.5546112  86.2385986  30.1857641
  36.3432971  85.2696478  31.9378213  37.1625860  85.7640557  31.9613051
  36.6169779  84.3528446  31.9095781  46.0999567  77.6607231  21.3006169
  45.2125422  77.9456881  21.0826364  46.5153556  77.5000994  20.4533446
  49.4514103  77.6853752  25.0160508  50.2274493  78.1750204  25.2885125
  48.7262237  78.1111806  25.4732378  51.8886662  78.3981371  26.0734449
  52.4831153  78.1577107  25.3627757  51.9613246  77.6788501  26.7007985
  34.1083818  92.2414982  26.3877613  33.9738286  91.4815383  25.8215612
  33.6915880  92.9655882  25.9206402  45.2442781  87.4251905  15.3954189
  45.9478631  87.6301908  16.0111844  44.5205429  87.9928667  15.6603272
  46.0740591  83.1761767  21.5156459  46.0175792  83.6330318  20.6764091
  46.6268933  82.4152451  21.3379302  49.8845397  78.9651498  22.3406578
  49.6282331  78.5648134  23.1714786  49.2598265  79.6795292  22.2156718
  54.1957735  81.7047572  24.8477870  53.6357293  81.7740761  25.6209432
  53.5901238  81.5288556  24.1277366  37.2652943  93.1384299  26.5996056
  37.1485328  94.0829731  26.4974746  36.4445390  92.8357860  26.9881855
  47.1529478  87.8634434  17.4452649  47.9875082  87.4315633  17.2630124
  46.9913821  87.6916448  18.3729543  46.8075370  84.3666548  18.8108988
  46.7524174  84.2010819  17.8697432  46.1821425  85.0742581  18.9671178
  31.5967885  79.6034612  32.6370410  32.2426749  79.0933566  33.1257635
  31.3885036  80.3403294  33.2113836  44.1221277  86.6715460  38.1362551
  44.9912437  86.8456112  37.7749186  43.6428029  87.4909876  38.0138280
  40.1171496  73.8674657  18.3894307  40.1050166  74.8116497  18.5462577
  41.0094918  73.6844802  18.0953768  38.2907458  93.7912561  29.8151985
  39.1934704  93.8236171  30.1318479  38.0644828  92.8613012  29.8298320
  40.0461060  92.5443547  26.4762063  39.0956691  92.5445409  26.3626435
  40.3493546  91.7976282  25.9598098  43.9323615  70.4617433  22.6440243
  43.1656011  69.9075920  22.7896926  44.3434320  70.5339302  23.5054395
  35.9365376  76.7502229  36.7345425  36.7996838  76.3939034  36.9448749
  35.3630787  76.4116124  37.4220829  55.7813753  98.3804086  27.5407826
  56.4192163  98.2610833  26.8371166  55.6634596  99.3284930  27.5995778
  52.5903459  98.3331514  27.4769350  52.2521971  98.2172578  26.5889885
  53.4593228  97.9322679  27.4570356  48.4490275 100.1866990  23.4666241
  47.8855140 100.0956927  22.6982529  48.3342670  99.3666895  23.9468734
  53.0723242  99.4866365  33.4355556  53.0611883  99.0919164  32.5636059
  53.2343882  98.7532438  34.0289327  45.9954707 101.6818182  26.3050462
  46.7875999 101.3409006  25.8896761  46.2351357 101.7913157  27.2252615
  47.9545461 100.9427095  19.1767840  48.7276337 100.3956082  19.0380716
  48.3070860 101.8071344  19.3882302  49.7930504 102.2703477  32.3834740
  49.5020370 103.1749108  32.2681406  50.4287488 102.3120005  33.0978809
  50.7186710  99.6480326  28.9736099  51.3150283  99.4236348  28.2593062
  50.7761682  98.9065071  29.5761547  50.2911739  97.1019761  16.8086290
  50.5437259  96.5801282  16.0469753  49.3536298  96.9385906  16.9112974
  55.3355022  96.1055539  24.6161034  56.1218111  95.6874963  24.2651451
  55.5993726  97.0101632  24.7842682  55.5065099 101.5428390  19.3149690
  54.8710932 101.6163016  20.0270595  55.1762505 102.1321989  18.6368770
  60.7363449  96.0430773  25.5194012  61.4688621  95.4729989  25.7531842
  59.9802804  95.6552373  25.9600518  50.0108028  99.0047867  19.0110665
  49.8944286  98.3292770  19.6791750  50.1210287  98.5180241  18.1942818
  52.3539568  98.4658014  22.7157355  51.9897776  97.9388635  23.4270276
  53.2106684  98.0756483  22.5423840  58.2588869  89.7552347  29.9788621
  57.9272194  90.6247758  29.7549836  57.6634482  89.4388631  30.6582651
  51.9945055  93.4947914  17.7118703  52.1619458  94.3628150  18.0789174
  51.8042225  93.6575195  16.7879992  54.7520389 101.9564893  29.3784533
  54.4521112 102.8589932  29.2700341  54.4071448 101.6897076  30.2305686
  48.2032870  98.4078690  25.4121238  47.2783367  98.2754904  25.6198930
  48.4517283  99.1872909  25.9091180  58.1517532  94.4747433  27.0581971
  57.2434410  94.4062841  26.7640732  58.1005128  94.9519378  27.8863796
  51.9734276  95.9505571  18.6965370  51.8533902  96.3962622  19.5350850
  51.2786865  96.2990889  18.1378908  45.5641681  98.0511963  26.2465027
  45.6934062  98.3046442  27.1604439  44.8839132  98.6439671  25.9269682
  52.2258398  95.8937078  35.0016868  51.4491732  96.4530999  34.9919733
  52.8648961  96.3793861  35.5231738  60.0179179  92.6763871  28.8359845
  59.3753559  92.9696404  28.1899639  59.5134107  92.5616792  29.6413041
  57.6719342  96.4227044  19.5245704  58.5837199  96.6554431  19.3493401
  57.1628990  97.0064089  18.9620783  50.4804771  98.7022532  34.5634835
  51.2219455  99.2407576  34.2869659  49.7741756  99.3288821  34.7206387
  55.9560110 100.8451672  33.1606997  56.3643466 100.4034083  32.4161629
  55.2337372 100.2704300  33.4141189  52.3091180  95.7824279  30.5340553
  53.1552375  96.2063693  30.6775202  52.2489818  95.1257903  31.2279117
  56.2788925 101.4052863  26.9159285  55.6497787 101.5698577  26.2135353
  55.8914587 101.8194472  27.6870249  60.1578157 102.3407301  24.2703649
  59.4729195 102.7206202  23.7200682  60.2422006 102.9502627  25.0035597
  55.4590626  93.4428647  32.1921727  55.2151557  94.1970708  31.6556003
  55.7350556  93.8213995  33.0268974  57.4129088  99.9867260  30.8698993
  57.6245984 100.6299020  30.1933374  57.3658837  99.1529576  30.4020923
  55.0155317  92.5985080  27.7735565  54.1539796  92.8966334  28.0652302
  55.0417752  92.8155479  26.8416597  51.8316887 101.1427271  24.1809371
  52.2955232 101.4214974  23.3913993  51.5673685 100.2410716  23.9982461
  48.7240968 100.6898753  27.1189134  49.2942325 101.1186021  26.4806618
  49.3149080 100.4081337  27.8173319  50.7685773  97.2650423  20.9898936
  51.4709816  97.7171467  21.4572862  50.4366401  96.6234242  21.6178829
  49.2166134  95.8562180  35.3650145  48.5864795  96.5378461  35.5985542
  49.1102222  95.7445262  34.4203283  44.5111107  95.5233976  26.2916069
  43.7210161  95.7791505  25.8156180  45.0022354  96.3382314  26.3968110
  58.5274916 102.8639215  29.0421350  59.3492360 102.4619402  28.7604032
  58.5237319 102.7607449  29.9937466  46.4625852  95.8878555  23.2499546
  45.6657015  95.9997250  23.7683042  46.2351444  96.2265208  22.3840436
  52.2931520 102.4123259  31.1982061  52.3575952 102.8743666  32.0340232
  51.5842444 101.7820623  31.3264370  42.7948810  95.7764466  28.7231060
  43.0456848  96.6611476  28.9888636  43.3308358  95.5969068  27.9506152
  66.6180909  99.2077964  25.3906322  65.8644618  98.6385362  25.2350326
  66.7528450  99.1740628  26.3376956  52.0079537 104.0791366  21.0661041
  51.8725212 104.9242902  21.4945889  52.5489350 104.2810644  20.3026975
  48.4946877  90.1582946  37.7275396  48.1013823  89.6049144  38.4023040
  49.3113017  90.4693524  38.1181914  45.4608935 101.5966804  21.6388966
  45.9733455 102.3910054  21.7894531  46.1131648 100.8993094  21.5722567
  47.2703819 104.7132560  23.7211719  47.4470448 105.6350525  23.5332703
  48.0660653 104.3990980  24.1506099  51.4114838  91.5740825  35.3195653
  52.1524551  92.1747978  35.2400115  51.6432761  90.8318463  34.7613695
  46.5556176  96.7597192  33.5973882  46.4409691  95.8582449  33.8980981
  45.7000694  97.0060889  33.2458699  53.6348014 104.7014933  35.1961383
  53.1911868 103.9151311  34.8782287  54.2965227 104.8894083  34.5305274
  55.7329252 104.9817732  33.2242784  55.7147727 105.8026613  32.7323053
  56.6549172 104.8571808  33.4492925  52.1902306 102.4961862  34.0666293
  52.7230643 101.7350150  33.8365601  51.6616387 102.2035514  34.8090447
  55.3572001  87.6021928  29.5959934  55.0136270  88.4923570  29.5199045
  55.7250964  87.4123586  28.7329519  43.4257852  99.9255458  22.4148536
  44.2633074 100.3352467  22.1982244  43.6036119  98.9854901  22.3848730
  55.3222284  97.5930539  18.1032369  54.8068907  98.3635144  18.3420757
  55.0499592  96.9195675  18.7265431  52.9069395  92.4380240  23.1617608
  52.0510991  92.0487090  22.9823247  53.3196346  92.5172201  22.3017393
  54.4368541  89.9726583  27.5609168  53.9333337  89.9356718  26.7476973
  54.7299148  90.8819326  27.6205824  50.6811427  90.0565313  26.5675349
  51.5464424  89.8608121  26.2081239  50.7488936  89.8275665  27.4944706
  55.1108587  95.4657631  19.9292151  54.8058722  95.7803780  20.7802294
  56.0639029  95.5439051  19.9719484  53.5555019 101.6247854  21.5785105
  53.0276380 100.8900614  21.2658342  53.0542521 102.4022531  21.3325073
  58.5347865  99.8196875  26.6952151  57.8771539 100.5096136  26.7832280
  59.3388264 100.2093307  27.0386137  48.2873746  92.2867521  23.9391716
  48.8617498  92.0642702  23.2064909  48.8744729  92.3556215  24.6920317
  57.3453323  98.1741248  24.7456093  57.8585205  98.8071239  25.2477802
  57.9954547  97.5742443  24.3799453  48.6143333  94.3171982  17.9587601
  47.7780646  94.6546668  18.2796876  48.4748103  94.1820962  17.0214738
  50.5896414  89.1608770  22.6666786  49.9360826  88.8457787  22.0423400
  50.5476888  88.5384510  23.3926608  53.8234154  95.6490703  26.9914433
  52.9056716  95.8705650  26.8336121  54.2394298  95.7237014  26.1326141
  54.6069202  97.0482119  22.1217113  55.3541021  97.5603516  21.8124235
  54.8760792  96.7266172  22.9821507  52.8795852  99.5440660  19.1044068
  51.9707072  99.2599692  19.2016537  52.9090936  99.9639738  18.2447375
  58.1115120 103.1547249  22.8735235  57.6577447 102.3138159  22.9300426
  57.4809086 103.7908647  23.2110015  57.0548039  94.0839235  24.1035903
  56.3170796  93.5716621  24.4346145  57.3074813  93.6439617  23.2919180
  56.5548059 104.9923746  23.8085053  56.8471033 105.5528803  23.0897419
  57.0646679 105.2852307  24.5638213  57.1559667  86.8615487  24.6977672
  57.4618543  86.0012850  24.4103587  57.8812271  87.4533107  24.4976666
  43.4484023  97.2646174  23.0859270  43.2508422  96.6715534  22.3610336
  42.8930687  96.9598384  23.8035209  51.4280746  97.1569280  25.2053863
  51.4829356  96.2043117  25.1296340  50.6171948  97.3128719  25.6895161
  49.3673106  95.7746340  22.9644242  48.5540972  96.0740510  23.3709434
  49.8632100  95.3802029  23.6818724  51.5181684 105.7704097  24.8978507
  51.4757863 105.9964943  23.9687039  52.4344383 105.5367471  25.0464308
  54.9647318  96.2388164  31.7959136  55.3196706  96.4659637  32.6553602
  55.6119449  96.5706541  31.1736391  60.6945055  99.3606600  22.5008465
  60.5562953  99.5508196  21.5729654  60.3381274 100.1225983  22.9576516
  48.8587181  93.3464695  28.5805477  49.4986560  93.2053455  27.8828440
  48.0264712  93.0599209  28.2044079  60.7214434 101.4283127  27.5119736
  61.1550941 101.3358416  28.3602790  61.4346015 101.4040628  26.8739752
  49.6347485 102.6467126  24.6940469  50.4288083 102.1517446  24.4923044
  48.9239177 102.1184989  24.3308175  54.4542329 105.0285221  29.0452837
  54.5079352 105.5976158  29.8130553  53.5857111 105.1987106  28.6806874
  45.9430248  96.7910208  20.7700222  45.0127836  96.7294663  20.9870184
  46.0387720  96.2686160  19.9736863  45.8615797  93.3165020  23.3578464
  46.1222615  94.2310354  23.2487624  46.6832970  92.8489463  23.5075077
  47.3340723  94.7302778  30.5277288  48.0063776  94.5220140  29.8789937
  46.5070509  94.5324864  30.0882521  61.5829984 101.4706828  30.0452622
  61.7765874 102.3752638  30.2911897  61.4830602 101.0114247  30.8791207
  53.2366295  91.3564718  32.5442949  52.5894210  92.0554668  32.4507426
  54.0067310  91.7900862  32.9119197  56.6445093 101.6213571  35.6193502
  56.4930599 101.3924122  34.7023586  56.6349772 102.5784172  35.6324847
  53.4130429  99.1945483  30.6039769  54.3422489  99.3456643  30.4308736
  52.9921459  99.2829504  29.7488415  52.2118761 103.2196148  28.3738306
  52.0729847 102.8514932  29.2464245  51.4233357 103.7343787  28.2022264
  53.7623976 102.5977751  25.7627144  53.4273809 102.5578520  26.6584794
  53.2627922 101.9322466  25.2897554  47.7368220  98.0045381  31.2879725
  47.5988018  97.2725619  31.8891264  48.6473143  97.9154281  31.0063913
  50.3650521  97.7165340  30.7763405  51.0750139  97.0758532  30.7350023
  50.3219829  97.9678235  31.6989586  58.3537299 104.6532693  33.6969984
  58.2949845 103.9691913  33.0300567  58.7556818 105.3951683  33.2450610
  49.0779455  94.7030558  32.5959045  48.5416812  94.2521296  33.2480641
  48.4896163  94.8376467  31.8529509  48.4881714  94.1619209  15.1585508
  47.6111180  94.0408010  14.7947755  48.9639467  93.3705287  14.9064397
  58.3554707 102.6172277  31.9283964  57.4681485 102.2798199  32.0510363
  58.9253258 101.8855308  32.1652729  40.0083854  98.9496369  25.2527015
  40.6954894  98.6358099  24.6648031  39.8531982  99.8537734  24.9794267
  44.8118576  93.8386565  29.6812039  44.7276765  93.2312235  28.9462449
  43.9901282  94.3295584  29.6821535  51.6745640 106.5145500  22.4048029
  50.8913162 107.0567180  22.4986253  52.3738385 107.0319479  22.8042270
  54.9842290  92.3240129  25.0482234  55.4810989  91.5710091  24.7283304
  54.2129271  92.3604446  24.4825443  62.8372047  98.0280495  26.6900526
  62.8261923  98.9105210  26.3194459  61.9689427  97.6752045  26.4955063
  54.3454544 107.1760564  31.0503366  55.0582516 107.8108028  30.9779267
  53.8544572 107.2724430  30.2343368  56.0672070 101.0811816  22.6220657
  55.1328349 101.2013279  22.4525362  56.2448739 100.1784283  22.3580667
  51.5677258  94.4657512  24.7753919  51.1975046  93.9128552  25.4634824
  52.0636351  93.8615645  24.2228919  59.4544622  96.9229135  23.1570692
  59.9205074  97.7557127  23.0830994  59.9052122  96.4574117  23.8615950
  49.3966457 104.9255007  31.8708937  50.0975917 105.5591490  32.0238331
  48.9261572 105.2669739  31.1104576  57.5220853 103.2672957  20.1556844
  57.7980697 103.1529551  21.0650718  56.6525352 102.8690442  20.1169017
  57.4261285  89.2909722  27.1961593  56.5124364  89.5213949  27.3643800
  57.8554386  89.3748167  28.0475625  57.1967743  97.4799614  29.6961487
  56.5439193  97.7275522  29.0413940  57.5748123  96.6663753  29.3623964
  54.1574917 107.5159308  23.7989657  54.3397311 106.6980964  24.2617410
  54.9807903 107.7327000  23.3614547  53.2455316  98.2219425  36.1827524
  52.5695953  98.1213555  36.8529899  54.0682950  98.0658639  36.6463521
  44.9934175 104.4591362  28.8040039  45.5787612 103.7135050  28.9367943
  44.7959014 104.7695319  29.6876703  39.5851830  97.0296962  27.5244482
  39.6235929  96.4960553  28.3181601  39.0792123  96.5032168  26.9055460
  46.9642592  91.8761503  31.0207025  47.0283919  92.7376334  30.6084422
  46.9009712  91.2635504  30.2879383  46.4394865  93.9484635  34.6680059
  47.0666903  93.5661713  35.2817583  45.5822784  93.7298837  35.0335751
  56.8388973 104.3547610  36.2733794  57.3828877 104.9677569  35.7788749
  56.2575818 104.9127189  36.7900807  43.2160407  95.7561064  20.5998414
  43.5113849  94.8471743  20.5465468  42.3148443  95.7348804  20.2779416
  55.1246486 107.4768328  27.4048822  54.9997626 106.6758068  26.8959768
  55.7825577 107.9714522  26.9162792  46.7454654  93.8317061  26.5825962
  46.0241240  94.4453029  26.4433436  47.5347910  94.3674826  26.5042608
  57.1881395 105.2777349  29.0328372  56.2411730 105.1582700  28.9606699
  57.5364168 104.3899847  29.1154634  49.5480968  91.1671487  32.8566614
  50.0715370  91.4133784  33.6192923  49.3293301  91.9991522  32.4369752
  44.9448249  93.4375162  20.7237739  44.6160955  92.5572541  20.5412845
  45.2987620  93.3822831  21.6114128  54.1927828 105.0730065  25.2332725
  54.0452790 104.1446772  25.4140295  55.0181321 105.0950155  24.7489800
  48.0590072  93.7248132  21.0913217  48.3986145  94.2534053  20.3691825
  48.5062193  94.0628538  21.8671783  57.7961950 105.8958623  26.3197597
  58.7208497 105.6901485  26.1822048  57.6277253 105.6475025  27.2286939
  50.7533513  92.1085183  30.5416285  50.4130333  91.3092996  30.9436965
  50.0472519  92.4086893  29.9693118  51.4049985  89.1934495  28.9943608
  52.2276054  88.7194973  28.8722498  51.6488048  89.9724979  29.4942294
  50.0458219  92.2222753  19.2906509  50.7666582  92.6004006  18.7870226
  49.4223523  92.9411630  19.3941487  54.1889342  92.9267902  20.2264842
  54.4052957  93.8092540  19.9253670  53.7083409  92.5354116  19.4970484
  48.9288564  95.8853616  26.8035586  48.7833144  96.1993919  27.6959868
  48.4513767  96.5038516  26.2506485  50.7884946  92.8756164  26.8516476
  50.7746515  91.9797257  26.5148774  51.5057375  92.8826827  27.4854762
  52.6411077  93.3093504  28.8969603  52.3828855  94.2310574  28.8953934
  52.1096118  92.9123938  29.5870067  43.4034226  98.4258960  29.7423248
  42.8587694  99.2018768  29.8743522  44.2813576  98.7729765  29.5842369
  50.1921842  91.7570544  22.1204046  50.3137754  90.8287190  22.3194934
  49.9023885  91.7709230  21.2082361  53.0613033  89.4425454  25.2570766
  53.0834730  89.5064787  24.3022745  53.4781092  88.6029963  25.4511272
  63.4396657  99.1780714  23.2949988  63.8827803  98.4288039  22.8969112
  62.5623167  99.1690850  22.9123720  44.1900248  97.5528856  32.6353404
  43.4481984  97.7011492  33.2218035  43.8692992  97.8137122  31.7720154
  52.1343910 107.0944835  32.4333794  52.4431037 106.8493981  33.3056494
  52.9319392 107.2991473  31.9452665  49.6038394 104.7920753  26.7361473
  48.9818404 104.1291458  26.4363700  50.2743261 104.8181885  26.0535120
  42.8365466 103.3580611  25.6252733  41.9997375 102.9302786  25.4436734
  42.8089112 103.5513055  26.5623524  49.6762922  93.2702541  36.3293979
  49.7251077  94.1464664  35.9471748  50.2185436  92.7279934  35.7565622
  60.1617768 103.8143665  35.6095116  59.3713311 103.7967803  35.0699615
  59.9251122 104.3531958  36.3644152  60.2815643 100.6636131  32.9227844
  60.3313648 100.4986138  33.8643367  60.1729566  99.7963390  32.5325725
  49.1651901 103.3424677  20.2119933  49.3140022 104.0260141  19.5586606
  49.9718345 103.3229767  20.7269389  57.5719405  96.6467059  34.2387151
  58.4729268  96.5073524  33.9471149  57.6467380  96.8121514  35.1785328
  51.9062210  94.0233914  33.0840337  51.0365520  94.3167480  32.8122926
  52.1421691  94.6074359  33.8047601  61.7833839 103.0833072  33.1669866
  61.4918648 103.4463053  34.0033327  61.1705971 102.3700081  32.9883198
  62.9829522 100.6485952  25.6872436  63.8176413 101.0875756  25.8509996
  63.1188651 100.1724605  24.8680682  60.0321028  98.2065687  31.6349924
  60.5075149  98.3993333  30.8268775  59.1086593  98.2624873  31.3893307
  46.9204534  99.3689854  21.2181002  46.6750576  98.4652184  21.4161212
  47.0900449  99.3707005  20.2760480  54.6101244  90.2413531  30.6005758
  55.1283188  90.9774558  30.2752246  54.2556377  90.5477524  31.4352517
  46.1900182  95.1018212  18.7167164  45.4969427  95.1762567  18.0607200
  45.9451934  94.3378555  19.2388680  54.8613838  86.6613813  26.1206654
  55.1415592  85.9937002  26.7467081  55.6464445  86.8542909  25.6081318
  58.7322697  95.0831447  29.8678229  59.6840120  95.1829545  29.8890453
  58.5626147  94.2909716  30.3776314  56.7537076  92.1687030  30.0537630
  56.1587008  92.4492043  29.3584119  56.4686773  92.6580931  30.8254371
  61.2110775  98.3037567  28.9820529  61.1787095  97.3653568  29.1680213
  61.8211398  98.3821604  28.2486354  53.0494105  97.1733620  15.0247733
  53.9953210  97.0439828  15.0936151  52.6708350  96.4348282  15.5017161
  61.3605263  95.0948610  29.0278812  60.8444312  94.3107067  28.8408741
  62.2445212  94.7667327  29.1925332  59.0215990  88.8389626  24.9874625
  58.8240811  88.5304714  25.8717957  59.6315696  89.5651265  25.1172555
  67.0287324  99.3653574  28.1226566  67.7590713  99.1038862  28.6834269
  66.4194270  98.6282296  28.1628634  65.1102621  97.5061436  28.7201017
  64.3835785  97.3717401  28.1117509  64.6949908  97.8138265  29.5257735
  52.9332798 101.2251366  36.4848390  53.8535807 101.4029965  36.6788437
  52.8982381 100.2807411  36.3328089  51.2337023  95.0983596  14.9602618
  50.3268478  94.8016709  15.0365332  51.5113004  94.8013414  14.0936905
  42.1514963  96.4189960  25.4101665  41.8317747  95.5655268  25.1176039
  41.6048391  96.6338538  26.1659632  45.9294870  99.1352401  29.1271171
  46.1480880 100.0669508  29.1459205  46.3420644  98.7760375  29.9125975
  52.8499088  89.6420486  21.1146860  52.0399817  89.2967571  21.4902106
  53.5383505  89.3328030  21.7034471  54.7789637  88.7198533  22.7371156
  55.3320675  89.1393986  23.3961179  55.0159723  87.7934281  22.7794112
  50.8022736  94.7085606  38.5173920  50.7019463  95.6579963  38.4486011
  50.5844278  94.3803845  37.6449990  50.0035807  91.9570531  15.1014598
  50.8654971  92.2825430  15.3610415  50.1886151  91.1702027  14.5887663
  42.0203223 100.0392871  27.3794786  41.3266694  99.6246824  26.8664741
  42.7676214 100.0813408  26.7828205  58.1568444  90.8299058  22.2449821
  57.5767113  91.4883862  21.8627873  57.8904376  90.0076402  21.8337238
  56.6072010  90.2304116  24.4471141  57.1071788  90.3420650  23.6385460
  57.2507618  89.9265168  25.0871949  50.6654006  98.1382745  37.3338982
  50.1821088  98.9383105  37.5402871  50.7514945  98.1490690  36.3806426
  43.9339965  99.9711125  25.2560801  43.9110654 100.0698812  24.3042684
  44.2440602 100.8176276  25.5777967  46.5927343 102.0287280  29.3707416
  47.5470597 101.9971222  29.3037347  46.3939867 101.5677904  30.1857641
  47.1826725 100.5988396  31.9378213  48.0019614 101.0932475  31.9613051
  47.4563533  99.6820364  31.9095781  56.9393322  92.9899148  21.3006169
  56.0519177  93.2748799  21.0826364  57.3547311  92.8292912  20.4533446
  60.2907858  93.0145669  25.0160508  61.0668248  93.5042122  25.2885125
  59.5655992  93.4403723  25.4732378  62.7280416  93.7273288  26.0734449
  63.3224907  93.4869024  25.3627757  62.8007000  93.0080419  26.7007985
  56.9134345  98.5053684  21.5156459  56.8569547  98.9622236  20.6764091
  57.4662688  97.7444369  21.3379302  60.7239151  94.2943416  22.3406578
  60.4676086  93.8940052  23.1714786  60.0992019  95.0087210  22.2156718
  65.0351489  97.0339489  24.8477870  64.4751047  97.1032679  25.6209432
  64.4294993  96.8580474  24.1277366  42.4361640  94.9326530  32.6370410
  43.0820503  94.4225484  33.1257635  42.2278791  95.6695211  33.2113836
  54.9615032 102.0007377  38.1362551  55.8306192 102.1748030  37.7749186
  54.4821783 102.8201794  38.0138280  50.9565250  89.1966574  18.3894307
  50.9443920  90.1408414  18.5462577  51.8488672  89.0136720  18.0953768
  54.7717370  85.7909351  22.6440243  54.0049765  85.2367838  22.7896926
  55.1828075  85.8631220  23.5054395  46.7759131  92.0794147  36.7345425
  47.6390592  91.7230952  36.9448749  46.2024541  91.7408042  37.4220829
  69.0982624 105.0844264  29.9788621  68.7665948 105.9539675  29.7549836
  68.5028237 104.7680548  30.6582651  70.8572933 108.0055789  28.8359845
  70.2147314 108.2988322  28.1899639  70.3527862 107.8908709  29.6413041
  63.1484935 111.1116197  30.5340553  63.9946130 111.5355610  30.6775202
  63.0883572 110.4549821  31.2279117  66.2984380 108.7720565  32.1921727
  66.0545312 109.5262626  31.6556003  66.5744311 109.1505913  33.0268974
  65.8549072 107.9276998  27.7735565  64.9933551 108.2258252  28.0652302
  65.8811506 108.1447397  26.8416597  59.3340631 105.4874864  37.7275396
  58.9407577 104.9341062  38.4023040  60.1506772 105.7985442  38.1181914
  62.2508592 106.9032743  35.3195653  62.9918306 107.5039896  35.2400115
  62.4826515 106.1610380  34.7613695  66.1965755 102.9313846  29.5959934
  65.8530025 103.8215487  29.5199045  66.5644718 102.7415503  28.7329519
  65.2762296 105.3018501  27.5609168  64.7727091 105.2648636  26.7476973
  65.5692903 106.2111243  27.6205824  61.5205182 105.3857230  26.5675349
  62.3858178 105.1900039  26.2081239  61.5882691 105.1567582  27.4944706
  61.4290168 104.4900687  22.6666786  60.7754581 104.1749704  22.0423400
  61.3870643 103.8676428  23.3926608  67.9953421 102.1907405  24.6977672
  68.3012298 101.3304768  24.4103587  68.7206026 102.7825025  24.4976666
  65.8041072 111.5680082  31.7959136  66.1590460 111.7951555  32.6553602
  66.4513204 111.8998459  31.1736391  59.6980935 108.6756613  28.5805477
  60.3380315 108.5345372  27.8828440  58.8658466 108.3891126  28.2044079
  64.0760049 106.6856636  32.5442949  63.4287964 107.3846586  32.4507426
  64.8461065 107.1192780  32.9119197  59.9173209 110.0322475  32.5959045
  59.3810566 109.5813214  33.2480641  59.3289918 110.1668384  31.8529509
  68.2655039 104.6201640  27.1961593  67.3518119 104.8505867  27.3643800
  68.6948140 104.7040084  28.0475625  57.8036347 107.2053420  31.0207025
  57.8677673 108.0668251  30.6084422  57.7403467 106.5927422  30.2879383
  57.2788619 109.2776553  34.6680059  57.9060658 108.8953630  35.2817583
  56.4216538 109.0590755  35.0335751  60.3874722 106.4963405  32.8566614
  60.9109124 106.7425702  33.6192923  60.1687056 107.3283440  32.4369752
  61.5927267 107.4377100  30.5416285  61.2524088 106.6384913  30.9436965
  60.8866274 107.7378811  29.9693118  62.2443739 104.5226413  28.9943608
  63.0669809 104.0486891  28.8722498  62.4881803 105.3016896  29.4942294
  61.6278701 108.2048081  26.8516476  61.6140270 107.3089175  26.5148774
  62.3451129 108.2118745  27.4854762  63.4804832 108.6385422  28.8969603
  63.2222609 109.5602492  28.8953934  62.9489872 108.2415856  29.5870067
  63.9006787 104.7717372  25.2570766  63.9228484 104.8356705  24.3022745
  64.3174846 103.9321881  25.4511272  60.5156676 108.5994459  36.3293979
  60.5644832 109.4756582  35.9471748  61.0579191 108.0571852  35.7565622
  68.4113160 111.9758977  34.2387151  69.3123022 111.8365441  33.9471149
  68.4861134 112.1413431  35.1785328  62.7455965 109.3525831  33.0840337
  61.8759274 109.6459397  32.8122926  62.9815445 109.9366276  33.8047601
  65.4494999 105.5705448  30.6005758  65.9676943 106.3066475  30.2752246
  65.0950131 105.8769442  31.4352517  65.7007593 101.9905731  26.1206654
  65.9809347 101.3228920  26.7467081  66.4858200 102.1834826  25.6081318
  69.5716451 110.4123365  29.8678229  70.5233874 110.5121462  29.8890453
  69.4019902 109.6201633  30.3776314  67.5930831 107.4978948  30.0537630
  66.9980763 107.7783961  29.3584119  67.3080527 107.9872849  30.8254371
  65.6111124 101.1201269  22.6440243  64.8443520 100.5659755  22.7896926
  66.0221829 101.1923138  23.5054395  57.6152885 107.4086065  36.7345425
  58.4784347 107.0522869  36.9448749  57.0418296 107.0699959  37.4220829
  20.5541980  30.5052735  20.1600862  20.5430621  30.1105533  19.2881366
  20.7162620  29.7718808  20.7534634  17.2749241  33.2889847  19.1080046
  16.9839107  34.1935478  18.9926713  17.9106226  33.3306374  19.8224116
  22.2339126  32.9751262  16.1029840  21.9339849  33.8776301  15.9945647
  21.8890186  32.7083445  16.9550993  19.7077136  26.9123448  21.7262175
  18.9310470  27.4717368  21.7165039  20.3467699  27.3980231  22.2477045
  17.9623508  29.7208901  21.2880142  18.7038193  30.2593945  21.0114965
  17.2560494  30.3475190  21.4451693  23.4378848  31.8638042  19.8852303
  23.8462204  31.4220452  19.1406936  22.7156109  31.2890669  20.1386496
  19.7909918  26.8010649  17.2585860  20.6371113  27.2250062  17.4020509
  19.7308556  26.1444273  17.9524423  23.7607663  32.4239232  13.6404592
  23.1316525  32.5884947  12.9380660  23.3733325  32.8380842  14.4115556
  27.6396894  33.3593670  10.9948956  26.9547933  33.7392572  10.4445989
  27.7240744  33.9688997  11.7280904  22.9409363  24.4615017  18.9167034
  22.6970295  25.2157078  18.3801309  23.2169294  24.8400365  19.7514281
  24.8947826  31.0053629  17.5944299  25.1064721  31.6485389  16.9178680
  24.8477574  30.1715946  17.1266229  16.6984872  26.8748550  22.0895452
  16.0683533  27.5564830  22.3230848  16.5920960  26.7631631  21.1448590
  26.0093654  33.8825585  15.7666657  26.8311098  33.4805772  15.4849338
  26.0056057  33.7793819  16.7182772  19.7750257  33.4309628  17.9227367
  19.8394690  33.8930035  18.7585539  19.0661181  32.8006993  18.0509677
  34.0999647  30.2264333  12.1151628  33.3463355  29.6571731  11.9595633
  34.2347188  30.1926998  13.0622263  15.9765615  21.1769315  24.4520703
  15.5832560  20.6235514  25.1268347  16.7931755  21.4879894  24.8427220
  18.8933576  22.5927195  22.0440959  19.6343289  23.1934348  21.9645422
  19.1251499  21.8504832  21.4859002  14.0374914  27.7783562  20.3219189
  13.9228429  26.8768819  20.6226288  13.1819432  28.0247259  19.9704005
  21.1166752  35.7201302  21.9206690  20.6730606  34.9337681  21.6027594
  21.7783965  35.9080453  21.2550580  15.8753873  37.2497104  16.4467368
  16.4261298  37.1214167  15.6744362  15.0365349  37.5491993  16.0962261
  23.2147990  36.0004102  19.9488091  23.1966465  36.8212983  19.4568360
  24.1367910  35.8758177  20.1738232  19.6721044  33.5148231  20.7911599
  20.2049381  32.7536520  20.5610907  19.1435125  33.2221883  21.5335754
  26.0166602  30.8383244  13.4197458  25.3590277  31.5282506  13.5077586
  26.8207002  31.2279676  13.7631444  24.0366797  36.0110115  10.5330360
  24.3289771  36.5715172   9.8142726  24.5465417  36.3038676  11.2883519
  22.4466056  27.2574534  18.5204442  22.8015443  27.4846007  19.3798908
  23.0938187  27.5892911  17.8981698  28.2033172  32.4469497  14.2365043
  28.6369679  32.3544786  15.0848097  28.9164753  32.4226997  13.5985059
  21.9361067  36.0471591  15.7698144  21.9898089  36.6162527  16.5375860
  21.0675849  36.2173476  15.4052181  29.0648722  32.4893197  16.7697928
  29.2584612  33.3939008  17.0157203  28.9649340  32.0300617  17.6036513
  24.1263830  32.6399940  22.3438809  23.9749337  32.4110492  21.4268893
  24.1168510  33.5970542  22.3570154  20.8949167  30.2131853  17.3285075
  21.8241227  30.3643013  17.1554043  20.4740197  30.3015874  16.4733722
  19.6937499  34.2382517  15.0983613  19.5548584  33.8701302  15.9709551
  18.9052095  34.7530157  14.9267571  15.2186958  29.0231750  18.0125032
  15.0806756  28.2911989  18.6136571  16.1291881  28.9340650  17.7309220
  17.8469258  28.7351709  17.5008712  18.5568877  28.0944902  17.4595330
  17.8038567  28.9864604  18.4234892  25.8356037  35.6719063  20.4215291
  25.7768583  34.9878283  19.7545874  26.2375556  36.4138053  19.9695917
  14.8546736  42.4880977  13.2149010  15.0943334  43.1199501  13.8928028
  14.0115932  42.1369017  13.5014369  25.8373444  33.6358647  18.6529271
  24.9500223  33.2984568  18.7755669  26.4071995  32.9041678  18.8898036
  19.3674598  38.2960099  15.6190514  19.2944769  39.1015071  16.1309818
  18.9251991  38.4952065  14.7938535  30.3190785  29.0466864  13.4145832
  30.3080661  29.9291580  13.0439765  29.4508164  28.6938415  13.2200369
  21.8273281  38.1946933  17.7748672  22.5401254  38.8294398  17.7024574
  21.3363310  38.2910799  16.9588674  16.8785195  35.9441377  18.5954243
  17.5794654  36.5777860  18.7483637  16.4080310  36.2856108  17.8349883
  24.6786481  28.4985984  16.4206794  24.0257931  28.7461891  15.7659246
  25.0566861  27.6850122  16.0869271  21.6393655  38.5345677  10.5234964
  21.8216049  37.7167333  10.9862716  22.4626641  38.7513369  10.0859854
  20.7274054  29.2405795  22.9072831  20.0514691  29.1399924  23.5775206
  21.5501688  29.0845009  23.3708828  12.4752913  35.4777732  15.5285346
  13.0606350  34.7321420  15.6613250  12.2777751  35.7881688  16.4122010
  19.4696837  40.5472723  17.1430447  20.0215145  40.7104344  17.9079532
  19.8103030  41.1377160  16.4710472  13.9213602  24.9671005  21.3925366
  14.5485641  24.5848082  22.0062890  13.0641521  24.7485207  21.7581058
  24.3207711  35.3733980  22.9979101  24.8647615  35.9863938  22.5034056
  23.7394556  35.9313558  23.5146114  22.6065224  38.4954698  14.1294129
  22.4816363  37.6944438  13.6205074  23.2644315  38.9900891  13.6408099
  24.6700132  36.2963718  15.7573679  23.7230468  36.1769069  15.6852006
  25.0182905  35.4086216  15.8399940  21.6746566  36.0916434  11.9578031
  21.5271528  35.1633142  12.1385601  22.5000059  36.1136525  11.4735106
  25.2780688  36.9144993  13.0442904  26.2027235  36.7087854  12.9067355
  25.1095991  36.6661394  13.9532245  19.6162648  38.1131204  19.1579101
  19.9249774  37.8680351  20.0301801  20.4138130  38.3177843  18.6697971
  19.6383260  40.2669114  11.3884478  19.1988250  39.7745492  12.0817334
  20.3891377  39.7242081  11.1476553  17.1581660  24.2888911  23.0539285
  17.2069815  25.1651034  22.6717055  17.7004174  23.7466304  22.4810928
  27.6436505  34.8330034  22.3340422  26.8532049  34.8154173  21.7944922
  27.4069860  35.3718328  23.0889459  27.7634380  31.6822500  19.6473151
  27.8132385  31.5172508  20.5888674  27.6548304  30.8149759  19.2571032
  25.0538143  27.6653428  20.9632458  25.9548006  27.5259893  20.6716455
  25.1286117  27.8307883  21.9030635  19.3880948  25.0420283  19.8085644
  18.5184258  25.3353849  19.5368232  19.6240429  25.6260728  20.5292908
  29.2652577  34.1019442  19.8915172  28.9737386  34.4649423  20.7278633
  28.6524709  33.3886450  19.7128505  30.4648260  31.6672322  12.4117743
  31.2995151  32.1062126  12.5755303  30.6007388  31.1910975  11.5925988
  27.5139766  29.2252057  18.3595230  27.9893887  29.4179703  17.5514082
  26.5905331  29.2811242  18.1138614  26.2141435  26.1017817  16.5923536
  27.1658857  26.2015914  16.6135760  26.0444885  25.3096085  17.1021620
  28.6929512  29.3223936  15.7065836  28.6605832  28.3839937  15.8925519
  29.3030136  29.4007973  14.9731661  28.8424001  26.1134980  15.7524119
  28.3263049  25.3293436  15.5654048  29.7263949  25.7853696  15.9170638
  34.5106062  30.3839943  14.8471872  35.2409451  30.1225231  15.4079576
  33.9013008  29.6468665  14.8873940  32.5921359  28.5247806  15.4446324
  31.8654523  28.3903771  14.8362815  32.1768646  28.8324634  16.2503042
  20.4151536  32.2437735  23.2093697  21.3354545  32.4216334  23.4033743
  20.3801119  31.2993781  23.0573396  18.2841474  25.7271976  25.2419227
  18.1838200  26.6766333  25.1731318  18.0663016  25.3990215  24.3695297
  18.1472744  29.1569115  24.0584288  17.6639825  29.9569475  24.2648177
  18.2333683  29.1677060  23.1051732  14.0746081  33.0473649  16.0952722
  15.0289335  33.0157592  16.0282654  13.8758605  32.5864273  16.9102948
  14.6645463  31.6174765  18.6623520  15.4838352  32.1118844  18.6858357
  14.9382271  30.7006734  18.6341087  15.5865436  39.4862586  13.3241363
  15.4697820  40.4308018  13.2220053  14.7657882  39.1836148  13.7127162
  22.4433770  33.0193747  24.8607858  23.3124929  33.1934399  24.4994492
  21.9640521  33.8388164  24.7383587  16.6119950  40.1390848  16.5397291
  17.5147197  40.1714458  16.8563786  16.3857320  39.2091299  16.5543627
  18.3673552  38.8921834  13.2007370  17.4169183  38.8923696  13.0871742
  18.6706038  38.1454569  12.6843404  14.2577868  23.0980516  23.4590731
  15.1209330  22.7417321  23.6694056  13.6843279  22.7594411  24.1466135
  34.1026245  44.7282373  14.2653132  34.7404655  44.6089120  13.5616472
  33.9847088  45.6763217  14.3241084  30.9115952  44.6809801  14.2014657
  30.5734463  44.5650866  13.3135192  31.7805720  44.2800966  14.1815663
  26.7702767  46.5345277  10.1911548  26.2067633  46.4435214   9.4227836
  26.6555162  45.7145182  10.6714040  31.3935735  45.8344653  20.1600862
  31.3824375  45.4397451  19.2881366  31.5556374  45.1010725  20.7534634
  24.3167199  48.0296469  13.0295768  25.1088491  47.6887294  12.6142068
  24.5563849  48.1391444  13.9497922  32.3502326  50.2016245   5.5026013
  31.6990306  50.7870325   5.1160027  33.1446689  50.7322440   5.5621050
  26.2757953  47.2905382   5.9013147  27.0488829  46.7434369   5.7626023
  26.6283352  48.1549631   6.1127608  28.1142996  48.6181764  19.1080046
  27.8232862  49.5227395  18.9926713  28.7499980  48.6598292  19.8224116
  29.0399203  45.9958613  15.6981406  29.6362775  45.7714635  14.9838369
  29.0974174  45.2543358  16.3006854  33.6567514  42.4533827  11.3406340
  34.4430603  42.0353250  10.9896757  33.9206218  43.3579919  11.5087989
  33.8277591  47.8906677   6.0394997  33.1923424  47.9641303   6.7515902
  33.4974998  48.4800276   5.3614076  39.0575941  42.3909060  12.2439319
  39.7901113  41.8208277  12.4777148  38.3015297  42.0030660  12.6845824
  28.3320520  45.3526154   5.7355972  28.2156778  44.6771058   6.4037056
  28.4422780  44.8658528   4.9188125  30.6752061  44.8136301   9.4402661
  30.3110268  44.2866922  10.1515583  31.5319177  44.4234770   9.2669147
  36.5801361  36.1030634  16.7033927  36.2484686  36.9726045  16.4795142
  35.9846975  35.7866918  17.3827958  33.0732881  48.3043180  16.1029840
  32.7733604  49.2068219  15.9945647  32.7283940  48.0375363  16.9550993
  26.5245362  44.7556977  12.1366544  25.5995859  44.6233191  12.3444236
  26.7729776  45.5351196  12.6336487  36.4730025  40.8225720  13.7827277
  35.5646902  40.7541129  13.4886038  36.4217620  41.2997665  14.6109103
  30.2946769  42.2983859   5.4210677  30.1746394  42.7440909   6.2596157
  29.5999357  42.6469176   4.8624215  23.8854173  44.3990250  12.9710334
  24.0146555  44.6524729  13.8849745  23.2051625  44.9917958  12.6514989
  28.0553661  55.0687500   9.0700808  27.9777690  56.0195325   9.1489288
  27.4515304  54.7233373   9.7275734  30.5470890  42.2415366  21.7262175
  29.7704225  42.8009286  21.7165039  31.1861454  42.7272149  22.2477045
  38.3391671  39.0242159  15.5605151  37.6966051  39.3174692  14.9144946
  37.8346600  38.9095079  16.3658348  35.9931835  42.7705332   6.2491011
  36.9049691  43.0032718   6.0738708  35.4841482  43.3542376   5.6866089
  28.8017263  45.0500819  21.2880142  29.5431947  45.5885863  21.0114965
  28.0954248  45.6767108  21.4451693  34.2772602  47.1929960  19.8852303
  34.6855958  46.7512370  19.1406936  33.5549864  46.6182587  20.1386496
  30.6303672  42.1302566  17.2585860  31.4764868  42.5541980  17.4020509
  30.5702310  41.4736191  17.9524423  34.6001417  47.7531150  13.6404592
  33.9710280  47.9176864  12.9380660  34.2127079  48.1672760  14.4115556
  38.4790649  48.6885588  10.9948956  37.7941687  49.0684489  10.4445989
  38.5634498  49.2980915  11.7280904  33.7803118  39.7906935  18.9167034
  33.5364050  40.5448995  18.3801309  34.0563048  40.1692282  19.7514281
  35.7341581  46.3345547  17.5944299  35.9458476  46.9777307  16.9178680
  35.6871329  45.5007864  17.1266229  33.3367810  38.9463368  14.4980871
  32.4752289  39.2444621  14.7897609  33.3630244  39.1633767  13.5661904
  30.1529379  47.4905558  10.9054677  30.6167724  47.7693261  10.1159300
  29.8886177  46.5889003  10.7227768  27.0453460  47.0377040  13.8434440
  27.6154817  47.4664308  13.2051925  27.6361572  46.7559624  14.5418626
  29.0898265  43.6128711   7.7144242  29.7922308  44.0649754   8.1818169
  28.7578893  42.9712529   8.3424135  27.5378627  42.2040467  22.0895452
  26.9077287  42.8856748  22.3230848  27.4314714  42.0923549  21.1448590
  22.8323599  41.8712263  13.0161376  22.0422653  42.1269792  12.5401486
  23.3234846  42.6860601  13.1213416  36.8487409  49.2117502  15.7666657
  37.6704852  48.8097690  15.4849338  36.8449811  49.1085737  16.7182772
  24.7838344  42.2356843   9.9744853  23.9869508  42.3475537  10.4928348
  24.5563937  42.5743495   9.1085743  30.6144012  48.7601546  17.9227367
  30.6788444  49.2221953  18.7585539  29.9054936  48.1298911  18.0509677
  21.1161302  42.1242754  15.4476367  21.3669340  43.0089764  15.7133943
  21.6520850  41.9447355  14.6751458  44.9393402  45.5556251  12.1151628
  44.1857110  44.9863649  11.9595633  45.0740943  45.5218915  13.0622263
  30.3292030  50.4269653   7.7906347  30.1937704  51.2721189   8.2191195
  30.8701842  50.6288931   7.0272281  26.8159369  36.5061233  24.4520703
  26.4226315  35.9527432  25.1268347  27.6325510  36.8171812  24.8427220
  23.7821427  47.9445091   8.3634273  24.2945948  48.7388342   8.5139837
  24.4344140  47.2471382   8.2967874  25.5916312  51.0610848  10.4457026
  25.7682940  51.9828812  10.2578010  26.3873145  50.7469267  10.8751406
  29.7327330  37.9219112  22.0440959  30.4737044  38.5226265  21.9645422
  29.9645253  37.1796750  21.4859002  24.8768668  43.1075479  20.3219189
  24.7622183  42.2060737  20.6226288  24.0213186  43.3539176  19.9704005
  31.9560506  51.0493220  21.9206690  31.5124360  50.2629598  21.6027594
  32.6177720  51.2372370  21.2550580  26.7147627  52.5789021  16.4467368
  27.2655052  52.4506085  15.6744362  25.8759103  52.8783910  16.0962261
  34.0541744  51.3296020  19.9488091  34.0360219  52.1504901  19.4568360
  34.9761664  51.2050095  20.1738232  30.5114798  48.8440149  20.7911599
  31.0443135  48.0828437  20.5610907  29.9828879  48.5513801  21.5335754
  33.6784493  33.9500215  16.3205241  33.3348763  34.8401857  16.2444352
  34.0463456  33.7601873  15.4574826  21.7470344  46.2733746   9.1393843
  22.5845566  46.6830754   8.9227551  21.9248611  45.3333188   9.1094037
  33.6434776  43.9408826   4.8277676  33.1281399  44.7113431   5.0666063
  33.3712084  43.2673962   5.4510738  31.2281887  38.7858527   9.8862914
  30.3723483  38.3965377   9.7068553  31.6408839  38.8650488   9.0262700
  32.7581034  36.3204870  14.2854474  32.2545829  36.2835005  13.4722279
  33.0511640  37.2297613  14.3451131  29.0023919  36.4043600  13.2920656
  29.8676916  36.2086409  12.9326545  29.0701428  36.1753952  14.2190013
  38.6169050  46.6941181   6.7630850  37.8398493  46.3552340   6.3186012
  39.2960531  46.6993804   6.0885815  33.4321079  41.8135918   6.6537457
  33.1271215  42.1282068   7.5047600  34.3851521  41.8917338   6.6964790
  31.8767511  47.9726142   8.3030411  31.3488872  47.2378901   7.9903649
  31.3755014  48.7500818   8.0570380  36.8560357  46.1675162  13.4197458
  36.1984031  46.8574424  13.5077586  37.6600756  46.5571594  13.7631444
  26.6086239  38.6345808  10.6637023  27.1829990  38.4120989   9.9310216
  27.1957221  38.7034502  11.4165624  35.6665816  44.5219535  11.4701399
  36.1797697  45.1549527  11.9723109  36.3167040  43.9220730  11.1044759
  32.9288190  54.5003859   4.2262070  32.2549889  54.8035556   4.8347028
  33.3154012  55.3032939   3.8767527  32.1446647  41.9968990  13.7159740
  31.2269208  42.2183937  13.5581428  32.5606790  42.0715301  12.8571447
  32.9281694  43.3960406   8.8462420  33.6753513  43.9081803   8.5369542
  33.1973284  43.0744459   9.7066814  31.2008345  45.8918947   5.8289374
  30.2919564  45.6077980   5.9261844  31.2303428  46.3118025   4.9692681
  36.4327612  49.5025536   9.5980542  35.9789939  48.6616446   9.6545732
  35.8021579  50.1386935   9.9355322  35.3760532  40.4317522  10.8281209
  34.6383288  39.9194909  11.1591452  35.6287305  39.9917904  10.0164486
  34.8760551  51.3402033  10.5330360  35.1683526  51.9007090   9.8142726
  35.3859172  51.6330594  11.2883519  35.4772159  33.2093774  11.4222979
  35.7831036  32.3491138  11.1348894  36.2024764  33.8011395  11.2221973
  21.7696515  43.6124461   9.8104577  21.5720915  43.0193822   9.0855643
  21.2143179  43.3076671  10.5280515  29.7493239  43.5047567  11.9299170
  29.8041848  42.5521404  11.8541646  28.9384441  43.6607006  12.4140468
  30.8984432  47.4327690   3.1677453  30.4603862  46.7163549   2.7083090
  31.6394873  47.6603805   2.6062544  27.6885599  42.1224627   9.6889549
  26.8753464  42.4218798  10.0954741  28.1844593  41.7280316  10.4064031
  29.8394176  52.1182384  11.6223813  29.7970355  52.3443230  10.6932345
  30.7556875  51.8845759  11.7709614  33.2859810  42.5866452  18.5204442
  33.6409198  42.8137925  19.3798908  33.9331941  42.9184828  17.8981698
  39.0157547  45.7084887   9.2253771  38.8775446  45.8986483   8.2974961
  38.6593766  46.4704270   9.6821823  27.1799673  39.6942983  15.3050784
  27.8199053  39.5531742  14.6073747  26.3477204  39.4077496  14.9289386
  39.0426927  47.7761414  14.2365043  39.4763433  47.6836704  15.0848097
  39.7558507  47.7518915  13.5985059  27.9559977  48.9945413  11.4185776
  28.7500576  48.4995733  11.2168351  27.2451670  48.4663276  11.0553482
  32.7754822  51.3763509  15.7698144  32.8291844  51.9454445  16.5375860
  31.9069603  51.5465394  15.4052181  24.2642741  43.1388495   7.4945529
  23.3340329  43.0772950   7.7115491  24.3600213  42.6164448   6.6982170
  24.1828290  39.6643308  10.0823770  24.4435107  40.5788641   9.9732931
  25.0045462  39.1967750  10.2320383  25.6553215  41.0781065  17.2522595
  26.3276268  40.8698427  16.6035244  24.8283002  40.8803151  16.8127827
  39.9042476  47.8185115  16.7697928  40.0978366  48.7230926  17.0157203
  39.8043094  47.3592534  17.6036513  31.5578787  37.7043006  19.2688256
  30.9106702  38.4032955  19.1752732  32.3279802  38.1379150  19.6364504
  34.9657585  47.9691858  22.3438809  34.8143091  47.7402410  21.4268893
  34.9562264  48.9262459  22.3570154  31.7342921  45.5423771  17.3285075
  32.6634981  45.6934930  17.1554043  31.3133951  45.6307791  16.4733722
  30.5331253  49.5674435  15.0983613  30.3942339  49.1993219  15.9709551
  29.7445849  50.0822074  14.9267571  31.1279405  54.6683532   6.4409150
  31.3031161  54.1971575   7.2554772  30.4412193  55.2949298   6.6690410
  32.0836468  48.9456038  12.4872451  31.7486301  48.9056808  13.3830101
  31.5840414  48.2800754  12.0142861  26.0580712  44.3523668  18.0125032
  25.9200510  43.6203907  18.6136571  26.9685636  44.2632568  17.7309220
  35.0195660  46.2912072   2.7609511  34.4024831  45.5658900   2.6642563
  34.5512148  47.0521432   2.4176585  28.6863013  44.0643627  17.5008712
  29.3962631  43.4236819  17.4595330  28.6432321  44.3156522  18.4234892
  36.6749792  51.0010980  20.4215291  36.6162338  50.3170201  19.7545874
  37.0769310  51.7429970  19.9695917  27.3991947  41.0508845  19.3204351
  26.8629304  40.5999583  19.9725947  26.8108655  41.1854754  18.5774815
  25.6940490  57.8172894  13.2149010  25.9337089  58.4491418  13.8928028
  24.8509687  57.4660934  13.5014369  36.6767199  48.9650564  18.6529271
  35.7893978  48.6276486  18.7755669  37.2465750  48.2333596  18.8898036
  18.3296346  45.2974656  11.9772322  19.0167386  44.9836386  11.3893337
  18.1744475  46.2016021  11.7039573  23.1331068  40.1864853  16.4057346
  23.0489257  39.5790522  15.6707756  22.3113775  40.6773871  16.4066842
  30.2068352  53.6252017  15.6190514  30.1338524  54.4306988  16.1309818
  29.7645745  53.8243983  14.7938535  29.9958132  52.8623787   9.1293335
  29.2125654  53.4045467   9.2231560  30.6950877  53.3797766   9.5287576
  33.3054782  38.6718416  11.7727541  33.8023482  37.9188379  11.4528611
  32.5341764  38.7082733  11.2070750  41.1584539  44.3758782  13.4145832
  41.1474416  45.2583497  13.0439765  40.2901919  44.0230333  13.2200369
  32.6667036  53.5238851  17.7748672  33.3795008  54.1586316  17.7024574
  32.1757064  53.6202717  16.9588674  34.3884563  47.4290103   9.3465964
  33.4540841  47.5491566   9.1770668  34.5661231  46.5262570   9.0825974
  29.8889751  40.8135799  11.4999225  29.5187538  40.2606840  12.1880131
  30.3848843  40.2093933  10.9474225  37.7757114  43.2707423   9.8815998
  38.2417566  44.1035414   9.8076301  38.2264615  42.8052404  10.5861257
  27.7178949  51.2733294  18.5954243  28.4188409  51.9069777  18.7483637
  27.2474064  51.6148026  17.8349883  35.8433345  49.6151244   6.8802150
  36.1193189  49.5007839   7.7896024  34.9737844  49.2168729   6.8414323
  35.7473777  35.6388010  13.9206900  34.8336857  35.8692237  14.0889106
  36.1766878  35.7226454  14.7720932  35.5180235  43.8277902  16.4206794
  34.8651686  44.0753809  15.7659246  35.8960615  43.0142040  16.0869271
  32.4787409  53.8637595  10.5234964  32.6609804  53.0459251  10.9862716
  33.3020395  54.0805287  10.0859854  32.8129575  52.7905780   7.7850012
  33.3417341  52.2798235   7.1720174  33.0757794  52.4748310   8.6495545
  31.5667808  44.5697713  22.9072831  30.8908445  44.4691842  23.5775206
  32.3895442  44.4136926  23.3708828  23.3146667  50.8069649  15.5285346
  23.9000104  50.0613337  15.6613250  23.1171506  51.1173606  16.4122010
  26.1685323  53.8420897  10.5447788  25.4995698  54.3267024  10.0611828
  26.0298192  54.0890117  11.4591167  17.9064322  43.3775249  14.2489789
  17.9448422  42.8438840  15.0426907  17.4004615  42.8510455  13.6300766
  30.3090591  55.8764640  17.1430447  30.8608899  56.0396262  17.9079532
  30.6496785  56.4669078  16.4710472  25.2855084  38.2239790  17.7452331
  25.3496411  39.0854621  17.3329729  25.2222205  37.6113792  17.0124690
  24.7607357  40.2962923  21.3925366  25.3879396  39.9140000  22.0062890
  23.9035276  40.0777124  21.7581058  35.1601466  50.7025898  22.9979101
  35.7041370  51.3155856  22.5034056  34.5788310  51.2605476  23.5146114
  33.4458978  53.8246616  14.1294129  33.3210118  53.0236356  13.6205074
  34.1038070  54.3192809  13.6408099  25.0667147  40.1795348  13.3071269
  24.3453732  40.7931316  13.1678742  25.8560402  40.7153113  13.2287915
  35.5093887  51.6255636  15.7573679  34.5624222  51.5060987  15.6852006
  35.8576660  50.7378134  15.8399940  27.8693460  37.5149775  19.5811921
  28.3927862  37.7612071  20.3438230  27.6505794  38.3469810  19.1615058
  32.5140320  51.4208352  11.9578031  32.3665283  50.4925059  12.1385601
  33.3393814  51.4428443  11.4735106  26.3802564  40.0726419   7.8158523
  26.7198637  40.6012340   7.0937132  26.8274685  40.4106825   8.5917090
  36.1174442  52.2436911  13.0442904  37.0420989  52.0379772  12.9067355
  35.9489745  51.9953312  13.9532245  29.0746005  38.4563470  17.2661591
  28.7342826  37.6571283  17.6682271  28.3685012  38.7565181  16.6938425
  29.7262477  35.5412782  15.7188914  30.5488546  35.0673260  15.5967805
  29.9700541  36.3203266  16.2187601  32.5101834  39.2746190   6.9510148
  32.7265449  40.1570828   6.6498977  32.0295902  38.8832403   6.2215790
  27.2501056  42.2331903  13.5280893  27.1045637  42.5472206  14.4205174
  26.7726259  42.8516803  12.9751792  29.1097439  39.2234451  13.5761783
  29.0959007  38.3275544  13.2394080  29.8269867  39.2305115  14.2100069
  30.9623569  39.6571791  15.6214910  30.7041347  40.5788862  15.6199240
  30.4308610  39.2602226  16.3115374  35.9069758  52.7622578   8.4004995
  36.0806636  52.1969001   7.6478848  36.3998649  53.5623473   8.2184485
  21.7246718  44.7737247  16.4668554  21.1800186  45.5497055  16.5988828
  22.6026068  45.1208052  16.3087676  28.5134335  38.1048831   8.8449353
  28.6350246  37.1765477   9.0440240  28.2236377  38.1187517   7.9327668
  31.3825525  35.7903742  11.9816073  31.4047222  35.8543075  11.0268052
  31.7993584  34.9508250  12.1756579  41.7609149  45.5259001  10.0195295
  42.2040295  44.7766326   9.6214418  40.8835660  45.5169137   9.6369027
  36.8944931  52.0789343   5.5001894  37.5895835  52.6996035   5.7189208
  37.2368081  51.2284694   5.7754272  22.5112740  43.9007144  19.3598711
  21.7694476  44.0489779  19.9463341  22.1905484  44.1615409  18.4965460
  38.7936354  49.5289048   7.0289224  39.3187678  49.8676321   6.3038544
  38.7058706  48.5936063   6.8452359  30.4556403  53.4423122  19.1579101
  30.7643529  53.1972269  20.0301801  31.2531885  53.6469760  18.6697971
  30.4777015  55.5961031  11.3884478  30.0382005  55.1037410  12.0817334
  31.2285132  55.0533999  11.1476553  22.9569354  51.7872572  11.3909106
  23.7827373  51.4876344  11.0107749  22.6063406  51.0180195  11.8398894
  27.9250887  51.1399040  13.4606779  27.3030896  50.4769746  13.1609007
  28.5955754  51.1660172  12.7780427  21.1577959  49.7058899  12.3498039
  20.3209867  49.2781073  12.1682041  21.1301604  49.8991342  13.2868830
  27.9975414  39.6180829  23.0539285  28.0463570  40.4942951  22.6717055
  28.5397928  39.0758222  22.4810928  38.4830260  50.1621952  22.3340422
  37.6925804  50.1446091  21.7944922  38.2463614  50.7010245  23.0889459
  38.6028135  47.0114418  19.6473151  38.6526140  46.8464426  20.5888674
  38.4942058  46.1441677  19.2571032  27.4864394  49.6902964   6.9365240
  27.6352514  50.3738428   6.2831913  28.2930837  49.6708054   7.4514696
  35.8931897  42.9945346  20.9632458  36.7941760  42.8551811  20.6716455
  35.9679872  43.1599801  21.9030635  30.2274703  40.3712201  19.8085644
  29.3578012  40.6645767  19.5368232  30.4634183  40.9552646  20.5292908
  40.1046332  49.4311360  19.8915172  39.8131140  49.7941340  20.7278633
  39.4918463  48.7178368  19.7128505  41.3042014  46.9964239  12.4117743
  42.1388905  47.4354044  12.5755303  41.4401143  46.5202893  11.5925988
  38.3533520  44.5543974  18.3595230  38.8287642  44.7471621  17.5514082
  37.4299085  44.6103160  18.1138614  25.2417027  45.7168141   7.9426309
  24.9963069  44.8130471   8.1406519  25.4112941  45.7185292   7.0005787
  32.9313736  36.5891818  17.3251064  33.4495680  37.3252845  16.9997553
  32.5768869  36.8955811  18.1597823  33.1826331  33.0092100  12.8451961
  33.4628084  32.3415289  13.4712387  33.9676938  33.2021196  12.3326625
  30.9859799  52.1851094   4.4076987  30.4133766  52.8041281   3.9547459
  31.5592593  52.7350456   4.9416909  37.0535189  41.4309734  16.5923536
  38.0052612  41.5307832  16.6135760  36.8838639  40.6388003  17.1021620
  35.0749568  38.5165318  16.7782937  34.4799501  38.7970330  16.0829426
  34.7899265  39.0059219  17.5499678  34.2057059  52.4688244   5.5385569
  35.1387732  52.4033806   5.7418445  34.1180272  53.3044511   5.0800102
  36.8345076  51.7854115   2.4989517  36.7558707  51.4513978   3.3925275
  37.6554742  52.2775883   2.4980989  39.5323267  44.6515854  15.7065836
  39.4999587  43.7131855  15.8925519  40.1423890  44.7299891  14.9731661
  39.6817755  41.4426897  15.7524119  39.1656804  40.6585354  15.5654048
  40.5657704  41.1145614  15.9170638  37.3428482  35.1867913  11.7119932
  37.1453303  34.8783001  12.5963263  37.9528188  35.9129552  11.8417861
  45.3499817  45.7131861  14.8471872  46.0803205  45.4517149  15.4079576
  44.7406762  44.9760583  14.8873940  43.4315114  43.8539723  15.4446324
  42.7048277  43.7195688  14.8362815  43.0162401  44.1616552  16.2503042
  31.2545290  47.5729653  23.2093697  32.1748300  47.7508252  23.4033743
  31.2194873  46.6285699  23.0573396  20.4727455  42.7668247  12.1346971
  20.1530240  41.9133555  11.8421345  19.9260883  42.9816825  12.8904939
  24.2507363  45.4830688  15.8516478  24.4693373  46.4147796  15.8704512
  24.6633137  45.1238662  16.6371282  31.1711581  35.9898773   7.8392166
  30.3612309  35.6445858   8.2147412  31.8595997  35.6806317   8.4279778
  33.1002129  35.0676820   9.4616463  33.6533167  35.4872273  10.1206486
  33.3372215  34.1412568   9.5039419  29.1235228  41.0563894  25.2419227
  29.0231955  42.0058251  25.1731318  28.9056770  40.7282132  24.3695297
  20.3415715  46.3871158  14.1040093  19.6479187  45.9725111  13.5910047
  21.0888706  46.4291695  13.5073512  36.4780936  37.1777345   8.9695127
  35.8979605  37.8362149   8.5873180  36.2116869  36.3554690   8.5582545
  34.9284502  36.5782403  11.1716447  35.4284281  36.6898937  10.3630766
  35.5720110  36.2743456  11.8117256  28.9866498  44.4861032  24.0584288
  28.5033580  45.2861393  24.2648177  29.0727437  44.4968977  23.1051732
  22.2552458  46.3189412  11.9806108  22.2323146  46.4177099  11.0287991
  22.5653094  47.1654563  12.3023274  24.9139836  48.3765567  16.0952722
  25.8683089  48.3449509  16.0282654  24.7152359  47.9156191  16.9102948
  25.5039218  46.9466683  18.6623520  26.3232107  47.4410762  18.6858357
  25.7776025  46.0298651  18.6341087  35.2605814  39.3377435   8.0251475
  34.3731669  39.6227086   7.8071670  35.6759803  39.1771199   7.1778752
  38.6120350  39.3623956  11.7405815  39.3880740  39.8520409  12.0130431
  37.8868484  39.7882011  12.1977684  41.0492909  40.0751576  12.7979755
  41.6437399  39.8347312  12.0873063  41.1219492  39.3558706  13.4253292
  23.2690064  53.9185187  13.1122920  23.1344532  53.1585588  12.5460918
  22.8522127  54.6426086  12.6451709  34.4049027  49.1022110   2.1199495
  35.1084878  49.3072113   2.7357151  33.6811676  49.6698872   2.3848579
  35.2346838  44.8531971   8.2401766  35.1782039  45.3100523   7.4009398
  35.7875180  44.0922656   8.0624608  39.0451644  40.6421703   9.0651885
  38.7888578  40.2418339   9.8960093  38.4204512  41.3565497   8.9402024
  43.3563981  43.3817777  11.5723176  42.7963539  43.4510966  12.3454739
  42.7507485  43.2058761  10.8522673  26.4259190  54.8154504  13.3241363
  26.3091574  55.7599936  13.2220053  25.6051637  54.5128065  13.7127162
  36.3135725  49.5404639   4.1697955  37.1481329  49.1085838   3.9875430
  36.1520068  49.3686653   5.0974850  35.9681617  46.0436753   5.5354295
  35.9130421  45.8781024   4.5942739  35.3427672  46.7512786   5.6916484
  20.7574132  41.2804817  19.3615717  21.4032996  40.7703771  19.8502942
  20.5491283  42.0173499  19.9359142  33.2827524  48.3485665  24.8607858
  34.1518684  48.5226317  24.4994492  32.8034276  49.1680081  24.7383587
  27.4513704  55.4682766  16.5397291  28.3540951  55.5006376  16.8563786
  27.2251074  54.5383216  16.5543627  29.2067306  54.2213752  13.2007370
  28.2562937  54.2215614  13.0871742  29.5099793  53.4746487  12.6843404
  33.0929862  32.1387638   9.3685550  32.3262258  31.5846125   9.5142232
  33.5040567  32.2109507  10.2299702  25.0971623  38.4272434  23.4590731
  25.9603085  38.0709239  23.6694056  24.5237034  38.0886329  24.1466135
  44.9420000  60.0574290  14.2653132  45.5798410  59.9381038  13.5616472
  44.8240843  61.0055134  14.3241084  41.7509706  60.0101719  14.2014657
  41.4128218  59.8942783  13.3135192  42.6199474  59.6092884  14.1815663
  37.6096522  61.8637195  10.1911548  37.0461387  61.7727132   9.4227836
  37.4948917  61.0437099  10.6714040  42.2329489  61.1636570  20.1600862
  42.2218130  60.7689369  19.2881366  42.3950129  60.4302643  20.7534634
  35.1560954  63.3588387  13.0295768  35.9482246  63.0179211  12.6142068
  35.3957604  63.4683362  13.9497922  43.1896081  65.5308163   5.5026013
  42.5384060  66.1162243   5.1160027  43.9840443  66.0614358   5.5621050
  37.1151708  62.6197300   5.9013147  37.8882584  62.0726287   5.7626023
  37.4677107  63.4841549   6.1127608  38.9536750  63.9473682  19.1080046
  38.6626616  64.8519313  18.9926713  39.5893735  63.9890210  19.8224116
  39.8792957  61.3250531  15.6981406  40.4756529  61.1006553  14.9838369
  39.9367929  60.5835276  16.3006854  39.4517986  58.7789966   3.5331597
  39.7043506  58.2571487   2.7715060  38.5142545  58.6156111   3.6358281
  44.4961268  57.7825744  11.3406340  45.2824358  57.3645167  10.9896757
  44.7599973  58.6871837  11.5087989  44.6671346  63.2198595   6.0394997
  44.0317179  63.2933221   6.7515902  44.3368752  63.8092193   5.3614076
  49.8969696  57.7200978  12.2439319  50.6294867  57.1500194  12.4777148
  49.1409051  57.3322578  12.6845824  39.1714274  60.6818072   5.7355972
  39.0550532  60.0062975   6.4037056  39.2816534  60.1950446   4.9188125
  41.5145815  60.1428219   9.4402661  41.1504022  59.6158840  10.1515583
  42.3712931  59.7526688   9.2669147  47.4195116  51.4322552  16.7033927
  47.0878441  52.3017963  16.4795142  46.8240729  51.1158836  17.3827958
  41.1551302  55.1718119   4.4364010  41.3225705  56.0398355   4.8034481
  40.9648471  55.3345400   3.5125299  43.9126635  63.6335098  16.1029840
  43.6127358  64.5360136  15.9945647  43.5677695  63.3667281  16.9550993
  37.3639117  60.0848894  12.1366544  36.4389613  59.9525109  12.3444236
  37.6123530  60.8643114  12.6336487  47.3123779  56.1517638  13.7827277
  46.4040657  56.0833046  13.4886038  47.2611375  56.6289583  14.6109103
  41.1340523  57.6275776   5.4210677  41.0140148  58.0732827   6.2596157
  40.4393111  57.9761094   4.8624215  34.7247928  59.7282168  12.9710334
  34.8540309  59.9816647  13.8849745  34.0445379  60.3209876  12.6514989
  38.8947415  70.3979418   9.0700808  38.8171445  71.3487243   9.1489288
  38.2909059  70.0525290   9.7275734  41.3864645  57.5707283  21.7262175
  40.6097979  58.1301204  21.7165039  42.0255208  58.0564066  22.2477045
  49.1785426  54.3534076  15.5605151  48.5359806  54.6466609  14.9144946
  48.6740354  54.2386997  16.3658348  46.8325589  58.0997249   6.2491011
  47.7443445  58.3324636   6.0738708  46.3235236  58.6834294   5.6866089
  39.6411017  60.3792737  21.2880142  40.3825702  60.9177781  21.0114965
  38.9348003  61.0059026  21.4451693  45.1166357  62.5221877  19.8852303
  45.5249713  62.0804288  19.1406936  44.3943618  61.9474505  20.1386496
  41.4697427  57.4594484  17.2585860  42.3158622  57.8833898  17.4020509
  41.4096065  56.8028108  17.9524423  45.4395172  63.0823068  13.6404592
  44.8104034  63.2468782  12.9380660  45.0520834  63.4964677  14.4115556
  49.3184403  64.0177506  10.9948956  48.6335442  64.3976407  10.4445989
  49.4028253  64.6272832  11.7280904  44.6196872  55.1198852  18.9167034
  44.3757804  55.8740913  18.3801309  44.8956803  55.4984200  19.7514281
  46.5735335  61.6637465  17.5944299  46.7852230  62.3069225  16.9178680
  46.5265083  60.8299781  17.1266229  44.1761564  54.2755285  14.4980871
  43.3146043  54.5736539  14.7897609  44.2023999  54.4925684  13.5661904
  40.9923133  62.8197476  10.9054677  41.4561479  63.0985179  10.1159300
  40.7279932  61.9180921  10.7227768  37.8847214  62.3668957  13.8434440
  38.4548572  62.7956226  13.2051925  38.4755326  62.0851542  14.5418626
  39.9292019  58.9420628   7.7144242  40.6316063  59.3941672   8.1818169
  39.5972648  58.3004447   8.3424135  38.3772381  57.5332385  22.0895452
  37.7471042  58.2148666  22.3230848  38.2708469  57.4215467  21.1448590
  33.6717353  57.2004181  13.0161376  32.8816407  57.4561709  12.5401486
  34.1628601  58.0152519  13.1213416  47.6881163  64.5409420  15.7666657
  48.5098607  64.1389607  15.4849338  47.6843566  64.4377654  16.7182772
  35.6232099  57.5648760   9.9744853  34.8263262  57.6767454  10.4928348
  35.3957691  57.9035412   9.1085743  41.4537766  64.0893463  17.9227367
  41.5182199  64.5513871  18.7585539  40.7448690  63.4590828  18.0509677
  31.9555056  57.4534671  15.4476367  32.2063095  58.3381681  15.7133943
  32.4914605  57.2739273  14.6751458  55.7787156  60.8848169  12.1151628
  55.0250864  60.3155567  11.9595633  55.9134697  60.8510833  13.0622263
  41.1685784  65.7561571   7.7906347  41.0331459  66.6013107   8.2191195
  41.7095597  65.9580849   7.0272281  37.6553124  51.8353151  24.4520703
  37.2620069  51.2819349  25.1268347  38.4719264  52.1463729  24.8427220
  34.6215181  63.2737009   8.3634273  35.1339702  64.0680259   8.5139837
  35.2737894  62.5763299   8.2967874  36.4310066  66.3902765  10.4457026
  36.6076695  67.3120730  10.2578010  37.2266900  66.0761184  10.8751406
  40.5721085  53.2511030  22.0440959  41.3130798  53.8518183  21.9645422
  40.8039008  52.5088668  21.4859002  35.7162423  58.4367397  20.3219189
  35.6015938  57.5352654  20.6226288  34.8606940  58.6831094  19.9704005
  42.7954260  66.3785137  21.9206690  42.3518115  65.5921516  21.6027594
  43.4571474  66.5664288  21.2550580  37.5541382  67.9080939  16.4467368
  38.1048807  67.7798002  15.6744362  36.7152858  68.2075828  16.0962261
  44.8935499  66.6587937  19.9488091  44.8753974  67.4796818  19.4568360
  45.8155419  66.5342013  20.1738232  41.3508553  64.1732067  20.7911599
  41.8836890  63.4120355  20.5610907  40.8222634  63.8805719  21.5335754
  44.5178248  49.2792133  16.3205241  44.1742517  50.1693774  16.2444352
  44.8857210  49.0893790  15.4574826  32.5864098  61.6025663   9.1393843
  33.4239320  62.0122672   8.9227551  32.7642366  60.6625105   9.1094037
  44.4828530  59.2700744   4.8277676  43.9675154  60.0405349   5.0666063
  44.2105839  58.5965880   5.4510738  42.0675641  54.1150445   9.8862914
  41.2117238  53.7257295   9.7068553  42.4802593  54.1942405   9.0262700
  43.5974788  51.6496788  14.2854474  43.0939584  51.6126923  13.4722279
  43.8905395  52.5589531  14.3451131  39.8417674  51.7335518  13.2920656
  40.7070671  51.5378326  12.9326545  39.9095183  51.5045869  14.2190013
  49.4562805  62.0233099   6.7630850  48.6792247  61.6844258   6.3186012
  50.1354286  62.0285722   6.0885815  44.2714834  57.1427836   6.6537457
  43.9664969  57.4573985   7.5047600  45.2245276  57.2209256   6.6964790
  42.7161265  63.3018059   8.3030411  42.1882627  62.5670819   7.9903649
  42.2148768  64.0792736   8.0570380  47.6954111  61.4967080  13.4197458
  47.0377786  62.1866341  13.5077586  48.4994511  61.8863512  13.7631444
  37.4479993  53.9637726  10.6637023  38.0223745  53.7412907   9.9310216
  38.0350975  54.0326420  11.4165624  46.5059570  59.8511453  11.4701399
  47.0191452  60.4841444  11.9723109  47.1560794  59.2512648  11.1044759
  37.7749580  55.9942187   4.6832908  36.9386892  56.3316873   5.0042183
  37.6354350  55.8591166   3.7460045  39.7502661  50.8378975   9.3912092
  39.0967073  50.5227992   8.7668707  39.7083135  50.2154715  10.1171915
  40.8613866  61.1198270   1.3065384  39.9540927  60.8887523   1.5056533
  41.3584898  60.3235889   1.4939366  43.7681944  69.8295777   4.2262070
  43.0943643  70.1327474   4.8347028  44.1547766  70.6324857   3.8767527
  42.9840401  57.3260908  13.7159740  42.0662962  57.5475855  13.5581428
  43.4000545  57.4007219  12.8571447  43.7675449  58.7252324   8.8462420
  44.5147268  59.2373721   8.5369542  44.0367038  58.4036376   9.7066814
  42.0402099  61.2210864   5.8289374  41.1313318  60.9369897   5.9261844
  42.0697183  61.6409943   4.9692681  47.2721366  64.8317454   9.5980542
  46.8183694  63.9908364   9.6545732  46.6415333  65.4678852   9.9355322
  46.2154286  55.7609440  10.8281209  45.4777043  55.2486826  11.1591452
  46.4681060  55.3209822  10.0164486  45.7154306  66.6693951  10.5330360
  46.0077280  67.2299008   9.8142726  46.2252926  66.9622512  11.2883519
  46.3165913  48.5385692  11.4222979  46.6224790  47.6783055  11.1348894
  47.0418518  49.1303312  11.2221973  32.6090269  58.9416379   9.8104577
  32.4114669  58.3485739   9.0855643  32.0536933  58.6368589  10.5280515
  40.5886993  58.8339485  11.9299170  40.6435603  57.8813321  11.8541646
  39.7778195  58.9898924  12.4140468  41.7378187  62.7619608   3.1677453
  41.2997617  62.0455467   2.7083090  42.4788628  62.9895723   2.6062544
  38.5279353  57.4516545   9.6889549  37.7147219  57.7510715  10.0954741
  39.0238347  57.0572234  10.4064031  40.6787931  67.4474302  11.6223813
  40.6364110  67.6735148  10.6932345  41.5950630  67.2137676  11.7709614
  44.1253565  57.9158369  18.5204442  44.4802952  58.1429842  19.3798908
  44.7725696  58.2476746  17.8981698  49.8551302  61.0376805   9.2253771
  49.7169200  61.2278401   8.2974961  49.4987520  61.7996188   9.6821823
  38.0193428  55.0234900  15.3050784  38.6592807  54.8823659  14.6073747
  37.1870958  54.7369414  14.9289386  49.8820681  63.1053332  14.2365043
  50.3157188  63.0128621  15.0848097  50.5952262  63.0810833  13.5985059
  38.7953732  64.3237331  11.4185776  39.5894330  63.8287651  11.2168351
  38.0845424  63.7955194  11.0553482  43.6148576  66.7055426  15.7698144
  43.6685598  67.2746363  16.5375860  42.7463357  66.8757311  15.4052181
  35.1036495  58.4680412   7.4945529  34.1734083  58.4064868   7.7115491
  35.1993967  57.9456365   6.6982170  35.0222044  54.9935225  10.0823770
  35.2828861  55.9080559   9.9732931  35.8439216  54.5259668  10.2320383
  36.4946970  56.4072982  17.2522595  37.1670023  56.1990345  16.6035244
  35.6676756  56.2095068  16.8127827  50.7436231  63.1477033  16.7697928
  50.9372121  64.0522843  17.0157203  50.6436849  62.6884452  17.6036513
  42.3972542  53.0334923  19.2688256  41.7500457  53.7324873  19.1752732
  43.1673557  53.4671067  19.6364504  45.8051339  63.2983776  22.3438809
  45.6536846  63.0694327  21.4268893  45.7956019  64.2554377  22.3570154
  42.5736676  60.8715688  17.3285075  43.5028736  61.0226848  17.1554043
  42.1527706  60.9599709  16.4733722  41.3725008  64.8966353  15.0983613
  41.2336093  64.5285137  15.9709551  40.5839604  65.4113992  14.9267571
  41.9673160  69.9975449   6.4409150  42.1424915  69.5263492   7.2554772
  41.2805948  70.6241215   6.6690410  42.9230223  64.2747955  12.4872451
  42.5880055  64.2348725  13.3830101  42.4234168  63.6092671  12.0142861
  36.8974467  59.6815585  18.0125032  36.7594265  58.9495824  18.6136571
  37.8079390  59.5924486  17.7309220  45.8589414  61.6203990   2.7609511
  45.2418585  60.8950818   2.6642563  45.3905903  62.3813350   2.4176585
  39.5256767  59.3935545  17.5008712  40.2356386  58.7528737  17.4595330
  39.4826076  59.6448440  18.4234892  47.5143546  66.3302898  20.4215291
  47.4556092  65.6462118  19.7545874  47.9163064  67.0721888  19.9695917
  38.2385701  56.3800763  19.3204351  37.7023058  55.9291501  19.9725947
  37.6502410  56.5146671  18.5774815  36.5334245  73.1464812  13.2149010
  36.7730843  73.7783336  13.8928028  35.6903441  72.7952852  13.5014369
  37.6487960  55.8389414   1.8830815  36.7717427  55.7178215   1.5193061
  38.1245713  55.0475492   1.6309703  47.5160953  64.2942482  18.6529271
  46.6287732  63.9568404  18.7755669  48.0859504  63.5625513  18.8898036
  29.1690100  60.6266574  11.9772322  29.8561140  60.3128304  11.3893337
  29.0138229  61.5307938  11.7039573  33.9724823  55.5156770  16.4057346
  33.8883011  54.9082440  15.6707756  33.1507529  56.0065789  16.4066842
  41.0462107  68.9543934  15.6190514  40.9732278  69.7598906  16.1309818
  40.6039500  69.1535900  14.7938535  40.8351886  68.1915704   9.1293335
  40.0519408  68.7337385   9.2231560  41.5344632  68.7089684   9.5287576
  44.1448537  54.0010334  11.7727541  44.6417236  53.2480296  11.4528611
  43.3735518  54.0374651  11.2070750  51.9978294  59.7050699  13.4145832
  51.9868170  60.5875415  13.0439765  51.1295673  59.3522250  13.2200369
  43.5060790  68.8530768  17.7748672  44.2188762  69.4878233  17.7024574
  43.0150819  68.9494634  16.9588674  45.2278317  62.7582021   9.3465964
  44.2934596  62.8783484   9.1770668  45.4054986  61.8554488   9.0825974
  40.7283505  56.1427717  11.4999225  40.3581293  55.5898757  12.1880131
  41.2242598  55.5385850  10.9474225  48.6150869  58.5999340   9.8815998
  49.0811321  59.4327332   9.8076301  49.0658369  58.1344322  10.5861257
  38.5572704  66.6025212  18.5954243  39.2582163  67.2361695  18.7483637
  38.0867819  66.9439943  17.8349883  46.6827100  64.9443162   6.8802150
  46.9586944  64.8299756   7.7896024  45.8131598  64.5460647   6.8414323
  46.5867531  50.9679927  13.9206900  45.6730611  51.1984154  14.0889106
  47.0160633  51.0518371  14.7720932  46.3573990  59.1569819  16.4206794
  45.7045440  59.4045727  15.7659246  46.7354370  58.3433958  16.0869271
  43.3181164  69.1929513  10.5234964  43.5003558  68.3751168  10.9862716
  44.1414150  69.4097205  10.0859854  43.6523329  68.1197698   7.7850012
  44.1811096  67.6090152   7.1720174  43.9151549  67.8040228   8.6495545
  42.4061563  59.8989630  22.9072831  41.7302200  59.7983760  23.5775206
  43.2289197  59.7428844  23.3708828  34.1540422  66.1361567  15.5285346
  34.7393859  65.3905255  15.6613250  33.9565260  66.4465524  16.4122010
  37.0079077  69.1712814  10.5447788  36.3389452  69.6558942  10.0611828
  36.8691947  69.4182035  11.4591167  28.7458077  58.7067167  14.2489789
  28.7842176  58.1730758  15.0426907  28.2398369  58.1802373  13.6300766
  41.1484346  71.2056558  17.1430447  41.7002654  71.3688179  17.9079532
  41.4890539  71.7960996  16.4710472  36.1248839  53.5531708  17.7452331
  36.1890165  54.4146539  17.3329729  36.0615959  52.9405709  17.0124690
  35.6001111  55.6254840  21.3925366  36.2273150  55.2431918  22.0062890
  34.7429030  55.4069042  21.7581058  45.9995220  66.0317815  22.9979101
  46.5435124  66.6447774  22.5034056  45.4182065  66.5897394  23.5146114
  32.3766654  57.4331269   7.3243720  32.6720095  56.5241948   7.2710774
  31.4754690  57.4119009   7.0024723  44.2852733  69.1538533  14.1294129
  44.1603872  68.3528273  13.6205074  44.9431824  69.6484727  13.6408099
  35.9060901  55.5087266  13.3071269  35.1847487  56.1223234  13.1678742
  36.6954157  56.0445031  13.2287915  46.3487641  66.9547553  15.7573679
  45.4017977  66.8352905  15.6852006  46.6970414  66.0670052  15.8399940
  38.7087215  52.8441692  19.5811921  39.2321617  53.0903989  20.3438230
  38.4899548  53.6761727  19.1615058  34.1054496  55.1145367   7.4483046
  33.7767202  54.2342746   7.2658152  34.4593866  55.0593036   8.3359435
  43.3534075  66.7500270  11.9578031  43.2059037  65.8216977  12.1385601
  44.1787568  66.7720360  11.4735106  37.2196319  55.4018337   7.8158523
  37.5592391  55.9304258   7.0937132  37.6668439  55.7398743   8.5917090
  46.9568196  67.5728828  13.0442904  47.8814744  67.3671690  12.9067355
  46.7883500  67.3245230  13.9532245  39.9139760  53.7855388  17.2661591
  39.5736580  52.9863201  17.6682271  39.2078766  54.0857098  16.6938425
  40.5656232  50.8704700  15.7188914  41.3882301  50.3965178  15.5967805
  40.8094295  51.6495184  16.2187601  39.2064466  53.8992958   6.0151816
  39.9272829  54.2774211   5.5115533  38.5829770  54.6181835   6.1186794
  43.3495589  54.6038107   6.9510148  43.5659203  55.4862745   6.6498977
  42.8689656  54.2124321   6.2215790  38.0894810  57.5623821  13.5280893
  37.9439391  57.8764124  14.4205174  37.6120014  58.1808721  12.9751792
  39.9491193  54.5526369  13.5761783  39.9352762  53.6567462  13.2394080
  40.6663621  54.5597032  14.2100069  41.8017324  54.9863709  15.6214910
  41.5435102  55.9080779  15.6199240  41.2702364  54.5894143  16.3115374
  46.7463513  68.0914496   8.4004995  46.9200390  67.5260918   7.6478848
  47.2392404  68.8915391   8.2184485  32.5640473  60.1029165  16.4668554
  32.0193941  60.8788973  16.5988828  33.4419822  60.4499969  16.3087676
  39.3528089  53.4340749   8.8449353  39.4744000  52.5057395   9.0440240
  39.0630132  53.4479435   7.9327668  42.2219280  51.1195659  11.9816073
  42.2440976  51.1834992  11.0268052  42.6387339  50.2800168  12.1756579
  52.6002904  60.8550919  10.0195295  53.0434050  60.1058244   9.6214418
  51.7229414  60.8461055   9.6369027  47.7338685  67.4081260   5.5001894
  48.4289590  68.0287953   5.7189208  48.0761835  66.5576611   5.7754272
  33.3506494  59.2299061  19.3598711  32.6088230  59.3781697  19.9463341
  33.0299239  59.4907327  18.4965460  49.6330108  64.8580966   7.0289224
  50.1581432  65.1968239   6.3038544  49.5452461  63.9227981   6.8452359
  41.2950157  68.7715039  19.1579101  41.6037283  68.5264186  20.0301801
  42.0925639  68.9761678  18.6697971  41.3170769  70.9252949  11.3884478
  40.8775759  70.4329328  12.0817334  42.0678886  70.3825917  11.1476553
  33.7963108  67.1164490  11.3909106  34.6221128  66.8168262  11.0107749
  33.4457160  66.3472112  11.8398894  38.7644641  66.4690958  13.4606779
  38.1424650  65.8061663  13.1609007  39.4349508  66.4952090  12.7780427
  31.9971713  65.0350816  12.3498039  31.1603621  64.6072991  12.1682041
  31.9695359  65.2283260  13.2868830  38.8369169  54.9472746  23.0539285
  38.8857324  55.8234869  22.6717055  39.3791683  54.4050139  22.4810928
  49.3224014  65.4913869  22.3340422  48.5319558  65.4738008  21.7944922
  49.0857369  66.0302163  23.0889459  49.4421889  62.3406336  19.6473151
  49.4919894  62.1756343  20.5888674  49.3335813  61.4733595  19.2571032
  38.3258148  65.0194882   6.9365240  38.4746268  65.7030346   6.2831913
  39.1324592  64.9999972   7.4514696  46.7325652  58.3237264  20.9632458
  47.6335515  58.1843729  20.6716455  46.8073626  58.4891719  21.9030635
  41.0668457  55.7004119  19.8085644  40.1971767  55.9937685  19.5368232
  41.3027938  56.2844564  20.5292908  50.9440086  64.7603277  19.8915172
  50.6524895  65.1233258  20.7278633  50.3312218  64.0470286  19.7128505
  52.1435769  62.3256157  12.4117743  52.9782660  62.7645961  12.5755303
  52.2794897  61.8494810  11.5925988  49.1927275  59.8835892  18.3595230
  49.6681396  60.0763538  17.5514082  48.2692840  59.9395078  18.1138614
  36.0810781  61.0460059   7.9426309  35.8356823  60.1422389   8.1406519
  36.2506696  61.0477210   7.0005787  43.7707491  51.9183736  17.3251064
  44.2889435  52.6544762  16.9997553  43.4162624  52.2247729  18.1597823
  35.3506429  56.7788417   5.4412470  34.6575674  56.8532772   4.7852506
  35.1058181  56.0148760   5.9633987  44.0220085  48.3384018  12.8451961
  44.3021839  47.6707207  13.4712387  44.8070692  48.5313114  12.3326625
  41.8253554  67.5143012   4.4076987  41.2527521  68.1333199   3.9547459
  42.3986347  68.0642374   4.9416909  47.8928944  56.7601652  16.5923536
  48.8446366  56.8599750  16.6135760  47.7232394  55.9679921  17.1021620
  45.9143323  53.8457235  16.7782937  45.3193255  54.1262248  16.0829426
  45.6293020  54.3351136  17.5499678  45.0450813  67.7980162   5.5385569
  45.9781487  67.7325724   5.7418445  44.9574026  68.6336429   5.0800102
  47.6738830  67.1146032   2.4989517  47.5952462  66.7805896   3.3925275
  48.4948497  67.6067800   2.4980989  50.3717021  59.9807772  15.7065836
  50.3393341  59.0423772  15.8925519  50.9817645  60.0591808  14.9731661
  42.2100352  58.8503825   1.7493040  43.1559457  58.7210033   1.8181458
  41.8314597  58.1118487   2.2262468  50.5211510  56.7718815  15.7524119
  50.0050558  55.9877272  15.5654048  51.4051458  56.4437532  15.9170638
  48.1822237  50.5159831  11.7119932  47.9847058  50.2074919  12.5963263
  48.7921942  51.2421470  11.8417861  56.1893571  61.0423779  14.8471872
  56.9196960  60.7809067  15.4079576  55.5800517  60.3052501  14.8873940
  54.2708868  59.1831641  15.4446324  53.5442032  59.0487606  14.8362815
  53.8556155  59.4908470  16.2503042  42.0939045  62.9021571  23.2093697
  43.0142054  63.0800170  23.4033743  42.0588628  61.9577616  23.0573396
  40.3943269  56.7753801   1.6847925  39.4874725  56.4786914   1.7610639
  40.6719250  56.4783619   0.8182211  31.3121210  58.0960165  12.1346971
  30.9923994  57.2425473  11.8421345  30.7654638  58.3108743  12.8904939
  35.0901117  60.8122606  15.8516478  35.3087127  61.7439713  15.8704512
  35.5026891  60.4530580  16.6371282  42.0105335  51.3190691   7.8392166
  41.2006063  50.9737776   8.2147412  42.6989752  51.0098235   8.4279778
  43.9395883  50.3968738   9.4616463  44.4926922  50.8164191  10.1206486
  44.1765970  49.4704486   9.5039419  39.9628983  56.3855811  25.2419227
  39.8625709  57.3350168  25.1731318  39.7450525  56.0574050  24.3695297
  39.1642054  53.6340736   1.8259904  40.0261218  53.9595635   2.0855721
  39.3492398  52.8472232   1.3132970  31.1809470  61.7163076  14.1040093
  30.4872941  61.3017029  13.5910047  31.9282461  61.7583613  13.5073512
  47.3174690  52.5069263   8.9695127  46.7373359  53.1654067   8.5873180
  47.0510623  51.6846607   8.5582545  45.7678257  51.9074320  11.1716447
  46.2678035  52.0190855  10.3630766  46.4113865  51.6035373  11.8117256
  39.8260253  59.8152950  24.0584288  39.3427334  60.6153310  24.2648177
  39.9121192  59.8260895  23.1051732  33.0946212  61.6481330  11.9806108
  33.0716900  61.7469017  11.0287991  33.4046849  62.4946481  12.3023274
  35.7533590  63.7057485  16.0952722  36.7076844  63.6741427  16.0282654
  35.5546114  63.2448109  16.9102948  36.3432972  62.2758601  18.6623520
  37.1625861  62.7702680  18.6858357  36.6169780  61.3590569  18.6341087
  46.0999568  54.6669353   8.0251475  45.2125423  54.9519004   7.8071670
  46.5153557  54.5063117   7.1778752  49.4514105  54.6915874  11.7405815
  50.2274495  55.1812327  12.0130431  48.7262239  55.1173928  12.1977684
  51.8886663  55.4043493  12.7979755  52.4831154  55.1639229  12.0873063
  51.9613247  54.6850624  13.4253292  34.1083819  69.2477104  13.1122920
  33.9738287  68.4877505  12.5460918  33.6915881  69.9718004  12.6451709
  45.2442782  64.4314028   2.1199495  45.9478632  64.6364030   2.7357151
  44.5205431  64.9990790   2.3848579  46.0740592  60.1823889   8.2401766
  46.0175794  60.6392441   7.4009398  46.6268935  59.4214574   8.0624608
  49.8845398  55.9713621   9.0651885  49.6282332  55.5710257   9.8960093
  49.2598266  56.6857415   8.9402024  54.1957736  58.7109694  11.5723176
  53.6357294  58.7802884  12.3454739  53.5901239  58.5350679  10.8522673
  37.2652945  70.1446421  13.3241363  37.1485329  71.0891854  13.2220053
  36.4445391  69.8419983  13.7127162  47.1529479  64.8696557   4.1697955
  47.9875083  64.4377756   3.9875430  46.9913822  64.6978571   5.0974850
  46.8075371  61.3728670   5.5354295  46.7524175  61.2072942   4.5942739
  46.1821427  62.0804703   5.6916484  31.5967886  56.6096735  19.3615717
  32.2426750  56.0995689  19.8502942  31.3885038  57.3465416  19.9359142
  44.1221279  63.6777582  24.8607858  44.9912438  63.8518234  24.4994492
  43.6428030  64.4971999  24.7383587  40.1171497  50.8736779   5.1139613
  40.1050167  51.8178619   5.2707884  41.0094919  50.6906925   4.8199074
  38.2907459  70.7974683  16.5397291  39.1934706  70.8298293  16.8563786
  38.0644829  69.8675134  16.5543627  40.0461061  69.5505670  13.2007370
  39.0956692  69.5507531  13.0871742  40.3493547  68.8038404  12.6843404
  43.9323616  47.4679556   9.3685550  43.1656012  46.9138043   9.5142232
  44.3434321  47.5401425  10.2299702  35.9365377  53.7564352  23.4590731
  36.7996839  53.4001157  23.6694056  35.3630788  53.4178247  24.1466135
  55.7813754  75.3866208  14.2653132  56.4192164  75.2672956  13.5616472
  55.6634597  76.3347052  14.3241084  52.5903461  75.3393636  14.2014657
  52.2521972  75.2234701  13.3135192  53.4593229  74.9384801  14.1815663
  48.4490276  77.1929113  10.1911548  47.8855141  77.1019050   9.4227836
  48.3342671  76.3729017  10.6714040  53.0723244  76.4928488  20.1600862
  53.0611884  76.0981286  19.2881366  53.2343883  75.7594561  20.7534634
  45.9954708  78.6880304  13.0295768  46.7876000  78.3471129  12.6142068
  46.2351358  78.7975279  13.9497922  47.9545462  77.9489218   5.9013147
  48.7276338  77.4018205   5.7626023  48.3070861  78.8133467   6.1127608
  49.7930505  79.2765600  19.1080046  49.5020371  80.1811231  18.9926713
  50.4287489  79.3182127  19.8224116  50.7186712  76.6542448  15.6981406
  51.3150284  76.4298471  14.9838369  50.7761683  75.9127194  16.3006854
  50.2911740  74.1081884   3.5331597  50.5437261  73.5863405   2.7715060
  49.3536299  73.9448029   3.6358281  55.3355023  73.1117662  11.3406340
  56.1218112  72.6937085  10.9896757  55.5993727  74.0163754  11.5087989
  55.5065100  78.5490512   6.0394997  54.8710933  78.6225139   6.7515902
  55.1762507  79.1384111   5.3614076  60.7363450  73.0492895  12.2439319
  61.4688622  72.4792112  12.4777148  59.9802806  72.6614496  12.6845824
  50.0108029  76.0109990   5.7355972  49.8944287  75.3354893   6.4037056
  50.1210289  75.5242364   4.9188125  52.3539570  75.4720137   9.4402661
  51.9897777  74.9450758  10.1515583  53.2106686  75.0818606   9.2669147
  58.2588870  66.7614469  16.7033927  57.9272195  67.6309880  16.4795142
  57.6634484  66.4450753  17.3827958  51.9945057  70.5010036   4.4364010
  52.1619459  71.3690273   4.8034481  51.8042226  70.6637318   3.5125299
  54.7520390  78.9627015  16.1029840  54.4521113  79.8652054  15.9945647
  54.4071449  78.6959199  16.9550993  48.2032871  75.4140812  12.1366544
  47.2783368  75.2817026  12.3444236  48.4517285  76.1935031  12.6336487
  58.1517534  71.4809555  13.7827277  57.2434411  71.4124964  13.4886038
  58.1005129  71.9581500  14.6109103  51.9734278  72.9567694   5.4210677
  51.8533903  73.4024745   6.2596157  51.2786866  73.3053012   4.8624215
  45.5641682  75.0574086  12.9710334  45.6934064  75.3108565  13.8849745
  44.8839134  75.6501794  12.6514989  49.7341170  85.7271336   9.0700808
  49.6565199  86.6779161   9.1489288  49.1302813  85.3817208   9.7275734
  52.2258399  72.8999201  21.7262175  51.4491734  73.4593121  21.7165039
  52.8648963  73.3855984  22.2477045  60.0179180  69.6825994  15.5605151
  59.3753560  69.9758527  14.9144946  59.5134109  69.5678914  16.3658348
  57.6719344  73.4289167   6.2491011  58.5837200  73.6616554   6.0738708
  57.1628991  74.0126211   5.6866089  50.4804772  75.7084654  21.2880142
  51.2219456  76.2469698  21.0114965  49.7741757  76.3350943  21.4451693
  55.9560111  77.8513795  19.8852303  56.3643467  77.4096205  19.1406936
  55.2337373  77.2766422  20.1386496  52.3091181  72.7886402  17.2585860
  53.1552377  73.2125815  17.4020509  52.2489819  72.1320026  17.9524423
  56.2788926  78.4114986  13.6404592  55.6497788  78.5760700  12.9380660
  55.8914588  78.8256595  14.4115556  60.1578158  79.3469423  10.9948956
  59.4729196  79.7268325  10.4445989  60.2422007  79.9564750  11.7280904
  55.4590627  70.4490770  18.9167034  55.2151559  71.2032831  18.3801309
  55.7350557  70.8276118  19.7514281  57.4129090  76.9929382  17.5944299
  57.6245985  77.6361142  16.9178680  57.3658838  76.1591699  17.1266229
  55.0155319  69.6047203  14.4980871  54.1539798  69.9028457  14.7897609
  55.0417753  69.8217602  13.5661904  51.8316888  78.1489394  10.9054677
  52.2955233  78.4277097  10.1159300  51.5673686  77.2472838  10.7227768
  48.7240969  77.6960875  13.8434440  49.2942326  78.1248144  13.2051925
  49.3149081  77.4143460  14.5418626  50.7685774  74.2712546   7.7144242
  51.4709817  74.7233590   8.1818169  50.4366402  73.6296365   8.3424135
  49.2166136  72.8624303  22.0895452  48.5864796  73.5440583  22.3230848
  49.1102223  72.7507384  21.1448590  44.5111108  72.5296099  13.0161376
  43.7210162  72.7853627  12.5401486  45.0022355  73.3444437  13.1213416
  58.5274917  79.8701338  15.7666657  59.3492361  79.4681525  15.4849338
  58.5237320  79.7669572  16.7182772  46.4625853  72.8940678   9.9744853
  45.6657017  73.0059372  10.4928348  46.2351446  73.2327330   9.1085743
  52.2931521  79.4185381  17.9227367  52.3575953  79.8805788  18.7585539
  51.5842445  78.7882746  18.0509677  42.7948811  72.7826589  15.4476367
  43.0456849  73.6673599  15.7133943  43.3308359  72.6031191  14.6751458
  66.6180911  76.2140086  12.1151628  65.8644619  75.6447484  11.9595633
  66.7528452  76.1802751  13.0622263  52.0079539  81.0853489   7.7906347
  51.8725213  81.9305024   8.2191195  52.5489351  81.2872766   7.0272281
  48.4946878  67.1645068  24.4520703  48.1013824  66.6111267  25.1268347
  49.3113019  67.4755647  24.8427220  45.4608936  78.6028927   8.3634273
  45.9733457  79.3972177   8.5139837  46.1131649  77.9055217   8.2967874
  47.2703821  81.7194683  10.4457026  47.4470449  82.6412648  10.2578010
  48.0660654  81.4053102  10.8751406  51.4114839  68.5802948  22.0440959
  52.1524553  69.1810101  21.9645422  51.6432762  67.8380585  21.4859002
  46.5556177  73.7659315  20.3219189  46.4409692  72.8644572  20.6226288
  45.7000695  74.0123012  19.9704005  53.6348015  81.7077055  21.9206690
  53.1911869  80.9213434  21.6027594  54.2965229  81.8956206  21.2550580
  48.3935136  83.2372857  16.4467368  48.9442561  83.1089920  15.6744362
  47.5546612  83.5367746  16.0962261  55.7329253  81.9879855  19.9488091
  55.7147728  82.8088736  19.4568360  56.6549173  81.8633930  20.1738232
  52.1902307  79.5023985  20.7911599  52.7230644  78.7412273  20.5610907
  51.6616388  79.2097636  21.5335754  55.3572002  64.6084050  16.3205241
  55.0136272  65.4985692  16.2444352  55.7250965  64.4185708  15.4574826
  43.4257853  76.9317581   9.1393843  44.2633075  77.3414589   8.9227551
  43.6036120  75.9917023   9.1094037  55.3222285  74.5992662   4.8277676
  54.8068908  75.3697266   5.0666063  55.0499593  73.9257798   5.4510738
  52.9069396  69.4442362   9.8862914  52.0510992  69.0549213   9.7068553
  53.3196348  69.5234323   9.0262700  54.4368543  66.9788706  14.2854474
  53.9333338  66.9418841  13.4722279  54.7299149  67.8881448  14.3451131
  50.6811428  67.0627435  13.2920656  51.5464425  66.8670244  12.9326545
  50.7488937  66.8337787  14.2190013  55.1108588  72.4719754   6.6537457
  54.8058724  72.7865903   7.5047600  56.0639030  72.5501174   6.6964790
  53.5555020  78.6309977   8.3030411  53.0276381  77.8962737   7.9903649
  53.0542523  79.4084653   8.0570380  58.5347866  76.8258997  13.4197458
  57.8771540  77.5158259  13.5077586  59.3388265  77.2155429  13.7631444
  48.2873748  69.2929643  10.6637023  48.8617499  69.0704825   9.9310216
  48.8744730  69.3618338  11.4165624  57.3453325  75.1803370  11.4701399
  57.8585206  75.8133362  11.9723109  57.9954549  74.5804566  11.1044759
  48.6143335  71.3234104   4.6832908  47.7780647  71.6608791   5.0042183
  48.4748104  71.1883084   3.7460045  50.5896415  66.1670892   9.3912092
  49.9360828  65.8519909   8.7668707  50.5476889  65.5446633  10.1171915
  53.8234156  72.6552826  13.7159740  52.9056717  72.8767773  13.5581428
  54.2394299  72.7299136  12.8571447  54.6069203  74.0544241   8.8462420
  55.3541022  74.5665639   8.5369542  54.8760793  73.7328294   9.7066814
  52.8795854  76.5502782   5.8289374  51.9707073  76.2661815   5.9261844
  52.9090937  76.9701861   4.9692681  58.1115121  80.1609372   9.5980542
  57.6577448  79.3200282   9.6545732  57.4809088  80.7970770   9.9355322
  57.0548041  71.0901358  10.8281209  56.3170797  70.5778744  11.1591452
  57.3074814  70.6501739  10.0164486  56.5548060  81.9985868  10.5330360
  56.8471035  82.5590925   9.8142726  57.0646681  82.2914429  11.2883519
  57.1559668  63.8677610  11.4222979  57.4618545  63.0074973  11.1348894
  57.8812273  64.4595230  11.2221973  43.4484024  74.2708296   9.8104577
  43.2508424  73.6777657   9.0855643  42.8930688  73.9660506  10.5280515
  51.4280748  74.1631403  11.9299170  51.4829357  73.2105239  11.8541646
  50.6171950  74.3190842  12.4140468  49.3673107  72.7808462   9.6889549
  48.5540973  73.0802633  10.0954741  49.8632102  72.3864151  10.4064031
  51.5181685  82.7766219  11.6223813  51.4757864  83.0027066  10.6932345
  52.4344384  82.5429594  11.7709614  54.9647319  73.2450287  18.5204442
  55.3196707  73.4721760  19.3798908  55.6119450  73.5768664  17.8981698
  60.6945056  76.3668723   9.2253771  60.5562955  76.5570319   8.2974961
  60.3381275  77.1288106   9.6821823  48.8587182  70.3526818  15.3050784
  49.4986562  70.2115577  14.6073747  48.0264713  70.0661331  14.9289386
  60.7214436  78.4345250  14.2365043  61.1550942  78.3420539  15.0848097
  61.4346016  78.4102750  13.5985059  49.6347486  79.6529248  11.4185776
  50.4288085  79.1579569  11.2168351  48.9239179  79.1247112  11.0553482
  54.4542331  82.0347344  15.7698144  54.5079353  82.6038280  16.5375860
  53.5857112  82.2049229  15.4052181  45.9430250  73.7972330   7.4945529
  45.0127838  73.7356786   7.7115491  46.0387722  73.2748283   6.6982170
  45.8615799  70.3227143  10.0823770  46.1222616  71.2372476   9.9732931
  46.6832971  69.8551586  10.2320383  47.3340724  71.7364900  17.2522595
  48.0063777  71.5282262  16.6035244  46.5070511  71.5386986  16.8127827
  61.5829985  78.4768951  16.7697928  61.7765875  79.3814761  17.0157203
  61.4830603  78.0176370  17.6036513  53.2366296  68.3626841  19.2688256
  52.5894211  69.0616791  19.1752732  54.0067311  68.7962985  19.6364504
  56.6445094  78.6275693  22.3438809  56.4930600  78.3986245  21.4268893
  56.6349773  79.5846295  22.3570154  53.4130430  76.2007606  17.3285075
  54.3422490  76.3518766  17.1554043  52.9921460  76.2891627  16.4733722
  52.2118762  80.2258270  15.0983613  52.0729848  79.8577055  15.9709551
  51.4233358  80.7405910  14.9267571  53.7623977  79.6039873  12.4872451
  53.4273810  79.5640643  13.3830101  53.2627923  78.9384589  12.0142861
  47.7368221  75.0107503  18.0125032  47.5988019  74.2787742  18.6136571
  48.6473145  74.9216403  17.7309220  50.3650522  74.7227462  17.5008712
  51.0750140  74.0820655  17.4595330  50.3219830  74.9740357  18.4234892
  58.3537301  81.6594816  20.4215291  58.2949847  80.9754036  19.7545874
  58.7556819  82.4013806  19.9695917  49.0779456  71.7092680  19.3204351
  48.5416813  71.2583419  19.9725947  48.4896164  71.8438589  18.5774815
  47.3727999  88.4756730  13.2149010  47.6124598  89.1075254  13.8928028
  46.5297196  88.1244770  13.5014369  48.4881715  71.1681332   1.8830815
  47.6111181  71.0470133   1.5193061  48.9639468  70.3767410   1.6309703
  58.3554708  79.6234400  18.6529271  57.4681487  79.2860322  18.7755669
  58.9253259  78.8917431  18.8898036  40.0083855  75.9558491  11.9772322
  40.6954895  75.6420222  11.3893337  39.8531984  76.8599856  11.7039573
  44.8118577  70.8448688  16.4057346  44.7276766  70.2374358  15.6707756
  43.9901284  71.3357706  16.4066842  51.8855861  84.2835852  15.6190514
  51.8126033  85.0890824  16.1309818  51.4433254  84.4827818  14.7938535
  51.6745641  83.5207622   9.1293335  50.8913163  84.0629302   9.2231560
  52.3738386  84.0381602   9.5287576  54.9842291  69.3302252  11.7727541
  55.4810991  68.5772214  11.4528611  54.2129273  69.3666568  11.2070750
  62.8372048  75.0342617  13.4145832  62.8261925  75.9167333  13.0439765
  61.9689428  74.6814168  13.2200369  54.3454545  84.1822686  17.7748672
  55.0582517  84.8170151  17.7024574  53.8544573  84.2786552  16.9588674
  56.0672072  78.0873939   9.3465964  55.1328350  78.2075401   9.1770668
  56.2448740  77.1846406   9.0825974  51.5677260  71.4719635  11.4999225
  51.1975047  70.9190675  12.1880131  52.0636352  70.8677768  10.9474225
  59.4544623  73.9291258   9.8815998  59.9205075  74.7619250   9.8076301
  59.9052124  73.4636240  10.5861257  49.3966458  81.9317130  18.5954243
  50.0975918  82.5653613  18.7483637  48.9261573  82.2731861  17.8349883
  57.5220854  80.2735079   6.8802150  57.7980698  80.1591674   7.7896024
  56.6525353  79.8752564   6.8414323  57.4261286  66.2971845  13.9206900
  56.5124366  66.5276072  14.0889106  57.8554387  66.3810289  14.7720932
  57.1967744  74.4861737  16.4206794  56.5439195  74.7337644  15.7659246
  57.5748124  73.6725875  16.0869271  54.1574918  84.5221430  10.5234964
  54.3397313  83.7043086  10.9862716  54.9807904  84.7389122  10.0859854
  53.2455317  75.2281548  22.9072831  52.5695954  75.1275677  23.5775206
  54.0682951  75.0720762  23.3708828  44.9934176  81.4653485  15.5285346
  45.5787613  80.7197173  15.6613250  44.7959015  81.7757441  16.4122010
  47.8472832  84.5004732  10.5447788  47.1783207  84.9850860  10.0611828
  47.7085701  84.7473952  11.4591167  39.5851831  74.0359085  14.2489789
  39.6235931  73.5022676  15.0426907  39.0792124  73.5094290  13.6300766
  51.9878100  86.5348476  17.1430447  52.5396408  86.6980097  17.9079532
  52.3284294  87.1252913  16.4710472  46.9642593  68.8823625  17.7452331
  47.0283920  69.7438456  17.3329729  46.9009714  68.2697627  17.0124690
  46.4394866  70.9546758  21.3925366  47.0666905  70.5723835  22.0062890
  45.5822785  70.7360960  21.7581058  56.8388975  81.3609733  22.9979101
  57.3828878  81.9739691  22.5034056  56.2575819  81.9189311  23.5146114
  43.2160409  72.7623187   7.3243720  43.5113850  71.8533865   7.2710774
  42.3148444  72.7410926   7.0024723  55.1246487  84.4830451  14.1294129
  54.9997627  83.6820191  13.6205074  55.7825579  84.9776644  13.6408099
  46.7454656  70.8379184  13.3071269  46.0241241  71.4515151  13.1678742
  47.5347911  71.3736948  13.2287915  57.1881396  82.2839471  15.7573679
  56.2411731  82.1644822  15.6852006  57.5364169  81.3961969  15.8399940
  49.5480969  68.1733610  19.5811921  50.0715371  68.4195907  20.3438230
  49.3293302  69.0053645  19.1615058  44.9448250  70.4437285   7.4483046
  44.6160956  69.5634664   7.2658152  45.2987621  70.3884953   8.3359435
  54.1927829  82.0792187  11.9578031  54.0452792  81.1508895  12.1385601
  55.0181323  82.1012278  11.4735106  48.0590073  70.7310254   7.8158523
  48.3986146  71.2596176   7.0937132  48.5062194  71.0690661   8.5917090
  57.7961951  82.9020746  13.0442904  58.7208498  82.6963607  12.9067355
  57.6277254  82.6537147  13.9532245  50.7533514  69.1147305  17.2661591
  50.4130335  68.3155118  17.6682271  50.0472521  69.4149016  16.6938425
  51.4049986  66.1996618  15.7188914  52.2276055  65.7257096  15.5967805
  51.6488050  66.9787101  16.2187601  50.0458221  69.2284876   6.0151816
  50.7666583  69.6066129   5.5115533  49.4223525  69.9473753   6.1186794
  54.1889343  69.9330025   6.9510148  54.4052958  70.8154663   6.6498977
  53.7083411  69.5416238   6.2215790  48.9288565  72.8915738  13.5280893
  48.7833146  73.2056041  14.4205174  48.4513768  73.5100639  12.9751792
  50.7884948  69.8818286  13.5761783  50.7746516  68.9859380  13.2394080
  51.5057376  69.8888950  14.2100069  52.6411078  70.3155626  15.6214910
  52.3828856  71.2372697  15.6199240  52.1096119  69.9186061  16.3115374
  43.4034227  75.4321083  16.4668554  42.8587695  76.2080891  16.5988828
  44.2813577  75.7791887  16.3087676  50.1921844  68.7632667   8.8449353
  50.3137755  67.8349313   9.0440240  49.9023886  68.7771352   7.9327668
  53.0613034  66.4487577  11.9816073  53.0834731  66.5126910  11.0268052
  53.4781093  65.6092086  12.1756579  63.4396658  76.1842836  10.0195295
  63.8827804  75.4350162   9.6214418  62.5623169  76.1752973   9.6369027
  44.1900249  74.5590979  19.3598711  43.4481985  74.7073614  19.9463341
  43.8692993  74.8199245  18.4965460  52.1343912  84.1006957  19.1579101
  52.4431038  83.8556104  20.0301801  52.9319394  84.3053596  18.6697971
  52.1564524  86.2544867  11.3884478  51.7169514  85.7621245  12.0817334
  52.9072641  85.7117834  11.1476553  44.6356863  82.4456408  11.3909106
  45.4614882  82.1460179  11.0107749  44.2850915  81.6764030  11.8398894
  49.6038396  81.7982876  13.4606779  48.9818405  81.1353581  13.1609007
  50.2743263  81.8244008  12.7780427  42.8365468  80.3642734  12.3498039
  41.9997376  79.9364908  12.1682041  42.8089113  80.5575177  13.2868830
  49.6762923  70.2764664  23.0539285  49.7251079  71.1526787  22.6717055
  50.2185437  69.7342057  22.4810928  60.1617769  80.8205787  22.3340422
  59.3713313  80.8029926  21.7944922  59.9251123  81.3594081  23.0889459
  60.2815644  77.6698253  19.6473151  60.3313649  77.5048261  20.5888674
  60.1729567  76.8025513  19.2571032  49.1651903  80.3486799   6.9365240
  49.3140023  81.0322264   6.2831913  49.9718346  80.3291889   7.4514696
  57.5719406  73.6529182  20.9632458  58.4729269  73.5135646  20.6716455
  57.6467381  73.8183636  21.9030635  51.9062212  71.0296036  19.8085644
  51.0365521  71.3229602  19.5368232  52.1421692  71.6136481  20.5292908
  61.7833841  80.0895195  19.8915172  61.4918649  80.4525176  20.7278633
  61.1705972  79.3762203  19.7128505  62.9829523  77.6548075  12.4117743
  63.8176414  78.0937879  12.5755303  63.1188652  77.1786728  11.5925988
  60.0321029  75.2127810  18.3595230  60.5075151  75.4055456  17.5514082
  59.1086594  75.2686995  18.1138614  46.9204536  76.3751977   7.9426309
  46.6750578  75.4714307   8.1406519  47.0900450  76.3769127   7.0005787
  54.6101245  67.2475653  17.3251064  55.1283189  67.9836680  16.9997553
  54.2556378  67.5539646  18.1597823  46.1900183  72.1080334   5.4412470
  45.4969428  72.1824689   4.7852506  45.9451935  71.3440678   5.9633987
  54.8613840  63.6675936  12.8451961  55.1415593  62.9999125  13.4712387
  55.6464447  63.8605031  12.3326625  58.7322698  72.0893570  16.5923536
  59.6840121  72.1891667  16.6135760  58.5626148  71.2971838  17.1021620
  56.7537077  69.1749153  16.7782937  56.1587010  69.4554166  16.0829426
  56.4686774  69.6643054  17.5499678  61.2110776  75.3099689  15.7065836
  61.1787096  74.3715690  15.8925519  61.8211399  75.3883726  14.9731661
  53.0494107  74.1795742   1.7493040  53.9953211  74.0501950   1.8181458
  52.6708352  73.4410404   2.2262468  61.3605264  72.1010733  15.7524119
  60.8444313  71.3169189  15.5654048  62.2445213  71.7729449  15.9170638
  59.0215991  65.8451748  11.7119932  58.8240812  65.5366837  12.5963263
  59.6315697  66.5713387  11.8417861  67.0287326  76.3715696  14.8471872
  67.7590714  76.1100984  15.4079576  66.4194271  75.6344418  14.8873940
  65.1102623  74.5123559  15.4446324  64.3835786  74.3779524  14.8362815
  64.6949910  74.8200387  16.2503042  52.9332799  78.2313489  23.2093697
  53.8535809  78.4092088  23.4033743  52.8982382  77.2869534  23.0573396
  51.2337024  72.1045719   1.6847925  50.3268479  71.8078831   1.7610639
  51.5113005  71.8075537   0.8182211  42.1514964  73.4252082  12.1346971
  41.8317749  72.5717390  11.8421345  41.6048392  73.6400660  12.8904939
  45.9294872  76.1414523  15.8516478  46.1480881  77.0731631  15.8704512
  46.3420646  75.7822498  16.6371282  52.8499090  66.6482608   7.8392166
  52.0399818  66.3029693   8.2147412  53.5383506  66.3390152   8.4279778
  54.7789638  65.7260655   9.4616463  55.3320676  66.1456109  10.1206486
  55.0159724  64.7996403   9.5039419  50.8022737  71.7147729  25.2419227
  50.7019464  72.6642086  25.1731318  50.5844279  71.3865968  24.3695297
  50.0035808  68.9632654   1.8259904  50.8654972  69.2887552   2.0855721
  50.1886153  68.1764150   1.3132970  42.0203224  77.0454994  14.1040093
  41.3266696  76.6308946  13.5910047  42.7676215  77.0875530  13.5073512
  58.1568445  67.8361180   8.9695127  57.5767114  68.4945984   8.5873180
  57.8904378  67.0138525   8.5582545  56.6072011  67.2366238  11.1716447
  57.1071790  67.3482773  10.3630766  57.2507619  66.9327291  11.8117256
  50.6654007  75.1444868  24.0584288  50.1821089  75.9445228  24.2648177
  50.7514946  75.1552813  23.1051732  43.9339967  76.9773247  11.9806108
  43.9110655  77.0760935  11.0287991  44.2440603  77.8238398  12.3023274
  46.5927345  79.0349402  16.0952722  47.5470598  79.0033345  16.0282654
  46.3939868  78.5740026  16.9102948  47.1826727  77.6050519  18.6623520
  48.0019616  78.0994597  18.6858357  47.4563534  76.6882487  18.6341087
  56.9393323  69.9961271   8.0251475  56.0519178  70.2810921   7.8071670
  57.3547312  69.8355034   7.1778752  60.2907859  70.0207792  11.7405815
  61.0668249  70.5104244  12.0130431  59.5655993  70.4465846  12.1977684
  62.7280418  70.7335411  12.7979755  63.3224908  70.4931147  12.0873063
  62.8007001  70.0142542  13.4253292  44.9477573  84.5769022  13.1122920
  44.8132041  83.8169423  12.5460918  44.5309636  85.3009922  12.6451709
  56.9134347  75.5115807   8.2401766  56.8569548  75.9684358   7.4009398
  57.4662689  74.7506491   8.0624608  60.7239153  71.3005539   9.0651885
  60.4676087  70.9002174   9.8960093  60.0992021  72.0149333   8.9402024
  65.0351490  74.0401612  11.5723176  64.4751048  74.1094801  12.3454739
  64.4294994  73.8642597  10.8522673  48.1046699  85.4738339  13.3241363
  47.9879083  86.4183771  13.2220053  47.2839146  85.1711901  13.7127162
  42.4361641  71.9388652  19.3615717  43.0820505  71.4287606  19.8502942
  42.2278792  72.6757334  19.9359142  54.9615033  79.0069500  24.8607858
  55.8306193  79.1810152  24.4994492  54.4821785  79.8263917  24.7383587
  50.9565251  66.2028697   5.1139613  50.9443921  67.1470537   5.2707884
  51.8488673  66.0198842   4.8199074  49.1301213  86.1266601  16.5397291
  50.0328460  86.1590211  16.8563786  48.9038583  85.1967052  16.5543627
  50.8854815  84.8797587  13.2007370  49.9350446  84.8799449  13.0871742
  51.1887302  84.1330322  12.6843404  54.7717371  62.7971474   9.3685550
  54.0049767  62.2429960   9.5142232  55.1828076  62.8693342  10.2299702
  46.7759132  69.0856269  23.4590731  47.6390594  68.7293074  23.6694056
  46.2024543  68.7470164  24.1466135  63.9116998  91.8220406  20.1600862
  63.9005639  91.4273204  19.2881366  64.0737638  91.0886478  20.7534634
  60.6324259  94.6057517  19.1080046  60.3414125  95.5103148  18.9926713
  61.2681244  94.6474045  19.8224116  69.0982625  82.0906387  16.7033927
  68.7665950  82.9601798  16.4795142  68.5028238  81.7742671  17.3827958
  56.4035437  90.3866003  12.9710334  56.5327818  90.6400482  13.8849745
  55.7232888  90.9793711  12.6514989  63.0652154  88.2291119  21.7262175
  62.2885488  88.7885039  21.7165039  63.7042717  88.7147902  22.2477045
  70.8572935  85.0117912  15.5605151  70.2147315  85.3050445  14.9144946
  70.3527863  84.8970832  16.3658348  61.3198526  91.0376572  21.2880142
  62.0613211  91.5761616  21.0114965  60.6135512  91.6642861  21.4451693
  66.7953866  93.1805713  19.8852303  67.2037222  92.7388123  19.1406936
  66.0731127  92.6058340  20.1386496  63.1484936  88.1178319  17.2585860
  63.9946131  88.5417733  17.4020509  63.0883574  87.4611944  17.9524423
  66.2984381  85.7782688  18.9167034  66.0545313  86.5324748  18.3801309
  66.5744312  86.1568035  19.7514281  65.8549073  84.9339121  14.4980871
  64.9933552  85.2320374  14.7897609  65.8811508  85.1509520  13.5661904
  60.0559890  88.1916220  22.0895452  59.4258551  88.8732501  22.3230848
  59.9495978  88.0799302  21.1448590  55.3504862  87.8588016  13.0161376
  54.5603916  88.1145545  12.5401486  55.8416110  88.6736354  13.1213416
  63.1325275  94.7477299  17.9227367  63.1969708  95.2097706  18.7585539
  62.4236199  94.1174664  18.0509677  53.6342565  88.1118507  15.4476367
  53.8850604  88.9965517  15.7133943  54.1702114  87.9323108  14.6751458
  59.3340633  82.4936986  24.4520703  58.9407578  81.9403185  25.1268347
  60.1506773  82.8047565  24.8427220  62.2508594  83.9094865  22.0440959
  62.9918307  84.5102018  21.9645422  62.4826517  83.1672503  21.4859002
  57.3949932  89.0951232  20.3219189  57.2803447  88.1936490  20.6226288
  56.5394449  89.3414929  19.9704005  64.4741769  97.0368973  21.9206690
  64.0305624  96.2505351  21.6027594  65.1358983  97.2248123  21.2550580
  63.0296062  94.8315902  20.7911599  63.5624398  94.0704190  20.5610907
  62.5010143  94.5389554  21.5335754  66.1965757  79.9375968  16.3205241
  65.8530026  80.8277610  16.2444352  66.5644719  79.7477626  15.4574826
  65.2762297  82.3080623  14.2854474  64.7727093  82.2710758  13.4722279
  65.5692904  83.2173366  14.3451131  61.5205183  82.3919353  13.2920656
  62.3858180  82.1962162  12.9326545  61.5882692  82.1629705  14.2190013
  61.4290170  81.4962810   9.3912092  60.7754582  81.1811827   8.7668707
  61.3870644  80.8738550  10.1171915  67.9953422  79.1969527  11.4222979
  68.3012299  78.3366891  11.1348894  68.7206027  79.7887148  11.2221973
  65.8041074  88.5742205  18.5204442  66.1590461  88.8013678  19.3798908
  66.4513205  88.9060581  17.8981698  59.6980937  85.6818736  15.3050784
  60.3380316  85.5407495  14.6073747  58.8658467  85.3953249  14.9289386
  58.1734478  87.0656818  17.2522595  58.8457532  86.8574180  16.6035244
  57.3464265  86.8678904  16.8127827  64.0760050  83.6918759  19.2688256
  63.4287966  84.3908708  19.1752732  64.8461066  84.1254903  19.6364504
  67.4838848  93.9567611  22.3438809  67.3324355  93.7278163  21.4268893
  67.4743528  94.9138212  22.3570154  64.2524185  91.5299524  17.3285075
  65.1816245  91.6810683  17.1554043  63.8315215  91.6183544  16.4733722
  58.5761976  90.3399421  18.0125032  58.4381774  89.6079660  18.6136571
  59.4866899  90.2508321  17.7309220  61.2044276  90.0519380  17.5008712
  61.9143895  89.4112572  17.4595330  61.1613585  90.3032275  18.4234892
  59.9173210  87.0384598  19.3204351  59.3810567  86.5875336  19.9725947
  59.3289919  87.1730507  18.5774815  50.8477609  91.2850409  11.9772322
  51.5348649  90.9712139  11.3893337  50.6925738  92.1891774  11.7039573
  55.6512332  86.1740606  16.4057346  55.5670520  85.5666275  15.6707756
  54.8295038  86.6649624  16.4066842  60.2360213  97.2609047  18.5954243
  60.9369672  97.8945530  18.7483637  59.7655328  97.6023779  17.8349883
  68.2655040  81.6263763  13.9206900  67.3518120  81.8567990  14.0889106
  68.6948142  81.7102207  14.7720932  64.0849072  90.5573466  22.9072831
  63.4089709  90.4567595  23.5775206  64.9076706  90.4012680  23.3708828
  50.4245586  89.3651003  14.2489789  50.4629685  88.8314593  15.0426907
  49.9185878  88.8386208  13.6300766  57.8036348  84.2115543  17.7452331
  57.8677674  85.0730374  17.3329729  57.7403468  83.5989545  17.0124690
  57.2788620  86.2838676  21.3925366  57.9060659  85.9015753  22.0062890
  56.4216539  86.0652877  21.7581058  67.6782729  96.6901651  22.9979101
  68.2222633  97.3031609  22.5034056  67.0969574  97.2481229  23.5146114
  57.5848410  86.1671101  13.3071269  56.8634996  86.7807069  13.1678742
  58.3741666  86.7028866  13.2287915  60.3874724  83.5025528  19.5811921
  60.9109126  83.7487824  20.3438230  60.1687057  84.3345563  19.1615058
  61.5927269  84.4439223  17.2661591  61.2524089  83.6447036  17.6682271
  60.8866275  84.7440934  16.6938425  62.2443741  81.5288535  15.7188914
  63.0669810  81.0549013  15.5967805  62.4881804  82.3079019  16.2187601
  59.7682319  88.2207656  13.5280893  59.6226900  88.5347959  14.4205174
  59.2907523  88.8392556  12.9751792  61.6278702  85.2110204  13.5761783
  61.6140271  84.3151297  13.2394080  62.3451130  85.2180868  14.2100069
  63.4804833  85.6447544  15.6214910  63.2222611  86.5664615  15.6199240
  62.9489873  85.2477979  16.3115374  54.2427981  90.7613000  16.4668554
  53.6981450  91.5372808  16.5988828  55.1207331  91.1083805  16.3087676
  63.9006789  81.7779495  11.9816073  63.9228485  81.8418828  11.0268052
  64.3174848  80.9384003  12.1756579  55.0294003  89.8882897  19.3598711
  54.2875739  90.0365532  19.9463341  54.7086748  90.1491162  18.4965460
  60.5156678  85.6056582  23.0539285  60.5644833  86.4818704  22.6717055
  61.0579192  85.0633975  22.4810928  71.0011523  96.1497705  22.3340422
  70.2107067  96.1321844  21.7944922  70.7644878  96.6885998  23.0889459
  71.1209398  92.9990171  19.6473151  71.1707403  92.8340179  20.5888674
  71.0123322  92.1317430  19.2571032  68.4113161  88.9821099  20.9632458
  69.3123024  88.8427564  20.6716455  68.4861135  89.1475554  21.9030635
  62.7455966  86.3587954  19.8085644  61.8759276  86.6521520  19.5368232
  62.9815446  86.9428399  20.5292908  65.4495000  82.5767571  17.3251064
  65.9676944  83.3128598  16.9997553  65.0950133  82.8831564  18.1597823
  65.7007594  78.9967853  12.8451961  65.9809348  78.3291042  13.4712387
  66.4858201  79.1896949  12.3326625  69.5716452  87.4185487  16.5923536
  70.5233875  87.5183585  16.6135760  69.4019903  86.6263756  17.1021620
  67.5930832  84.5041071  16.7782937  66.9980764  84.7846083  16.0829426
  67.3080529  84.9934972  17.5499678  63.7726554  93.5605406  23.2093697
  64.6929563  93.7384005  23.4033743  63.7376137  92.6161452  23.0573396
  52.9908719  88.7544000  12.1346971  52.6711503  87.9009308  11.8421345
  52.4442147  88.9692578  12.8904939  56.7688626  91.4706441  15.8516478
  56.9874636  92.4023549  15.8704512  57.1814400  91.1114415  16.6371282
  61.6416492  87.0439647  25.2419227  61.5413218  87.9934004  25.1731318
  61.4238034  86.7157886  24.3695297  52.8596979  92.3746911  14.1040093
  52.1660450  91.9600864  13.5910047  53.6069970  92.4167448  13.5073512
  61.5047762  90.4736785  24.0584288  61.0214843  91.2737146  24.2648177
  61.5908701  90.4844730  23.1051732  57.4321099  94.3641320  16.0952722
  58.3864353  94.3325262  16.0282654  57.2333623  93.9031944  16.9102948
  58.0220481  92.9342436  18.6623520  58.8413370  93.4286515  18.6858357
  58.2957289  92.0174404  18.6341087  53.2755395  87.2680570  19.3615717
  53.9214259  86.7579524  19.8502942  53.0672547  88.0049252  19.9359142
  65.8008788  94.3361418  24.8607858  66.6699947  94.5102070  24.4994492
  65.3215539  95.1555834  24.7383587  65.6111125  78.1263391   9.3685550
  64.8443521  77.5721878   9.5142232  66.0221830  78.1985260  10.2299702
  57.6152886  84.4148187  23.4590731  58.4784348  84.0584992  23.6694056
  57.0418297  84.0762082  24.1466135  70.1734387  97.8228904  24.4520703
  69.7801333  97.2695102  25.1268347  70.9900528  98.1339482  24.8427220
  68.4546641  99.7440105  23.4590731  69.3178102  99.3876910  23.6694056
  67.8812052  99.4054000  24.1466135  42.2329490  38.1698693   6.8846169
  42.2218131  37.7751491   6.0126673  42.3950130  37.4364766   7.4779941
  38.9536752  40.9535805   5.8325353  38.6626618  41.8581436   5.7172019
  39.5893736  40.9952332   6.5469423  43.9126637  40.6397220   2.8275147
  43.6127360  41.5422259   2.7190954  43.5677696  40.3729403   3.6796300
  41.3864646  34.5769406   8.4507481  40.6097980  35.1363326   8.4410346
  42.0255209  35.0626189   8.9722351  39.6411019  37.3854859   8.0125448
  40.3825703  37.9239903   7.7360272  38.9348004  38.0121148   8.1697000
  45.1166358  39.5284000   6.6097610  45.5249714  39.0866410   5.8652242
  44.3943620  38.9536627   6.8631803  41.4697428  34.4656607   3.9831167
  42.3158623  34.8896020   4.1265816  41.4096066  33.8090231   4.6769730
  45.4395173  40.0885190   0.3649899  44.8104035  40.2530905  -0.3374033
  45.0520835  40.5026800   1.1360863  49.3184405  41.0239628  -2.2805738
  48.6335443  41.4038530  -2.8308704  49.4028254  41.6334955  -1.5473790
  44.6196874  32.1260975   5.6412340  44.3757805  32.8803035   5.1046616
  44.8956804  32.5046323   6.4759587  46.5735336  38.6699587   4.3189606
  46.7852232  39.3131347   3.6423987  46.5265085  37.8361904   3.8511536
  38.3772382  34.5394508   8.8140758  37.7471043  35.2210788   9.0476155
  38.2708470  34.4277589   7.8693897  47.6881164  41.5471543   2.4911963
  48.5098608  41.1451730   2.2094645  47.6843567  41.4439777   3.4428079
  41.4537768  41.0955586   4.6472674  41.5182200  41.5575993   5.4830846
  40.7448692  40.4652951   4.7754984  55.7787157  37.8910291  -1.1603065
  55.0250866  37.3217689  -1.3159061  55.9134699  37.8572956  -0.2132431
  37.6553125  28.8415273  11.1766009  37.2620071  28.2881472  11.8513654
  38.4719265  29.1525852  11.5672527  40.5721086  30.2573152   8.7686266
  41.3130799  30.8580306   8.6890728  40.8039009  29.5150790   8.2104308
  35.7162424  35.4429520   7.0464496  35.6015939  34.5414777   7.3471595
  34.8606942  35.6893216   6.6949312  42.7954262  43.3847260   8.6451996
  42.3518116  42.5983639   8.3272901  43.4571475  43.5726411   7.9795887
  37.5541383  44.9143062   3.1712675  38.1048808  44.7860125   2.3989669
  36.7152859  45.2137951   2.8207568  44.8935500  43.6650060   6.6733397
  44.8753975  44.4858941   6.1813667  45.8155420  43.5404135   6.8983539
  41.3508554  41.1794189   7.5156906  41.8836891  40.4182478   7.2856214
  40.8222635  40.8867841   8.2581060  47.6954113  38.5029202   0.1442764
  47.0377787  39.1928464   0.2322893  48.4994512  38.8925634   0.4876751
  45.7154307  43.6756073  -2.7424333  46.0077281  44.2361130  -3.4611968
  46.2252928  43.9684634  -1.9871174  44.1253566  34.9220492   5.2449749
  44.4802954  35.1491965   6.1044215  44.7725697  35.2538869   4.6227004
  49.8820682  40.1115455   0.9610350  50.3157189  40.0190744   1.8093404
  50.5952263  40.0872955   0.3230366  43.6148577  43.7117549   2.4943450
  43.6685600  44.2808485   3.2621166  42.7463359  43.8819434   2.1297487
  50.7436232  40.1539155   3.4943235  50.9372122  41.0584966   3.7402510
  50.6436850  39.6946574   4.3281820  45.8051341  40.3045898   9.0684116
  45.6536847  40.0756450   8.1514199  45.7956020  41.2616500   9.0815461
  42.5736677  37.8777811   4.0530382  43.5028737  38.0288971   3.8799349
  42.1527707  37.9661832   3.1979029  41.3725009  41.9028475   1.8228920
  41.2336095  41.5347260   2.6954858  40.5839605  42.4176115   1.6512878
  36.8974468  36.6877708   4.7370339  36.7594266  35.9557947   5.3381878
  37.8079391  36.5986608   4.4554526  39.5256769  36.3997667   4.2254018
  40.2356387  35.7590860   4.1840637  39.4826077  36.6510562   5.1480199
  47.5143547  43.3365021   7.1460598  47.4556094  42.6524241   6.4791181
  47.9163066  44.0784011   6.6941224  36.5334246  50.1526935  -0.0605684
  36.7730844  50.7845459   0.6173335  35.6903443  49.8014975   0.2259676
  47.5160955  41.3004605   5.3774577  46.6287733  40.9630526   5.5000976
  48.0859506  40.5687636   5.6143343  41.0462108  45.9606057   2.3435820
  40.9732280  46.7661029   2.8555125  40.6039501  46.1598023   1.5183842
  51.9978295  36.7112822   0.1391139  51.9868171  37.5937537  -0.2314928
  51.1295675  36.3584373  -0.0554324  43.5060792  45.8592891   4.4993979
  44.2188764  46.4940356   4.4269881  43.0150820  45.9556757   3.6833981
  38.5572705  43.6087335   5.3199550  39.2582165  44.2423817   5.4728944
  38.0867820  43.9502066   4.5595189  46.3573991  36.1631942   3.1452100
  45.7045441  36.4107849   2.4904553  46.7354371  35.3496080   2.8114578
  43.3181165  46.1991635  -2.7519729  43.5003559  45.3813291  -2.2891977
  44.1414151  46.4159327  -3.1894839  42.4061564  36.9051753   9.6318137
  41.7302201  36.8045882  10.3020513  43.2289198  36.7490967  10.0954135
  34.1540423  43.1423690   2.2530653  34.7393860  42.3967377   2.3858557
  33.9565262  43.4527646   3.1367316  41.1484347  48.2118680   3.8675753
  41.7002655  48.3750302   4.6324839  41.4890540  48.8023118   3.1955778
  35.6001113  32.6316963   8.1170672  36.2273152  32.2494040   8.7308197
  34.7429032  32.4131165   8.4826365  45.9995221  43.0379938   9.7224408
  46.5435125  43.6509896   9.2279363  45.4182066  43.5959516  10.2391421
  44.2852734  46.1600656   0.8539435  44.1603874  45.3590396   0.3450381
  44.9431825  46.6546849   0.3653405  46.3487643  43.9609676   2.4818986
  45.4017978  43.8415027   2.4097312  46.6970416  43.0732174   2.5645247
  43.3534076  43.7562392  -1.3176662  43.2059038  42.8279100  -1.1369092
  44.1787569  43.7782483  -1.8019587  46.9568198  44.5790951  -0.2311789
  47.8814745  44.3733812  -0.3687338  46.7883501  44.3307352   0.6777552
  41.2950158  45.7777162   5.8824408  41.6037285  45.5326309   6.7547107
  42.0925640  45.9823801   5.3943278  41.3170770  47.9315072  -1.8870216
  40.8775761  47.4391450  -1.1937359  42.0678887  47.3888039  -2.1278141
  38.8369170  31.9534869   9.7784592  38.8857325  32.8296992   9.3962362
  39.3791684  31.4112262   9.2056235  49.3224016  42.4975992   9.0585729
  48.5319559  42.4800131   8.5190228  49.0857370  43.0364286   9.8134766
  49.4421891  39.3468458   6.3718458  49.4919896  39.1818466   7.3133980
  49.3335814  38.4795717   5.9816338  46.7325653  35.3299386   7.6877764
  47.6335516  35.1905851   7.3961762  46.8073628  35.4953841   8.6275942
  41.0668458  32.7066241   6.5330951  40.1971768  32.9999807   6.2613539
  41.3027939  33.2906686   7.2538214  50.9440088  41.7665400   6.6160479
  50.6524896  42.1295380   7.4523940  50.3312219  41.0532408   6.4373811
  52.1435770  39.3318280  -0.8636951  52.9782661  39.7708084  -0.6999390
  52.2794899  38.8556933  -1.6828705  49.1927276  36.8898015   5.0840537
  49.6681397  37.0825661   4.2759388  48.2692841  36.9457200   4.8383921
  47.8928945  33.7663775   3.3168843  48.8446368  33.8661872   3.3381067
  47.7232395  32.9742043   3.8266927  50.3717023  36.9869894   2.4311142
  50.3393343  36.0485895   2.6170826  50.9817646  37.0653931   1.6976967
  50.5211511  33.7780938   2.4769426  50.0050560  32.9939394   2.2899354
  51.4051460  33.4499654   2.6415945  56.1893572  38.0485901   1.5717179
  56.9196961  37.7871189   2.1324882  55.5800518  37.3114623   1.6119247
  54.2708870  36.1893764   2.1691630  53.5442033  36.0549729   1.5608122
  53.8556156  36.4970592   2.9748348  42.0939046  39.9083693   9.9339003
  43.0142055  40.0862292  10.1279050  42.0588629  38.9639739   9.7818703
  39.9628984  33.3917934  11.9664533  39.8625711  34.3412291  11.8976625
  39.7450526  33.0636173  11.0940604  39.8260254  36.8215073  10.7829595
  39.3427336  37.6215433  10.9893484  39.9121193  36.8323018   9.8297039
  35.7533591  40.7119607   2.8198029  36.7076845  40.6803550   2.7527960
  35.5546115  40.2510231   3.6348255  36.3432973  39.2820723   5.3868827
  37.1625862  39.7764802   5.4103664  36.6169781  38.3652692   5.3586394
  37.2652946  47.1508544   0.0486669  37.1485330  48.0953976  -0.0534640
  36.4445392  46.8482105   0.4372469  44.1221280  40.6839705  11.5853164
  44.9912440  40.8580357  11.2239799  43.6428031  41.5034122  11.4628894
  38.2907460  47.8036806   3.2642598  39.1934707  47.8360416   3.5809093
  38.0644830  46.8737257   3.2788934  40.0461062  46.5567792  -0.0747324
  39.0956693  46.5569654  -0.1882951  40.3493548  45.8100527  -0.5911289
  35.9365379  30.7626474  10.1836038  36.7996840  30.4063279  10.3939362
  35.3630789  30.4240369  10.8711442  55.7813756  52.3928331   0.9898439
  56.4192166  52.2735078   0.2861779  55.6634599  53.3409175   1.0486391
  52.5903462  52.3455759   0.9259964  52.2521973  52.2296824   0.0380498
  53.4593230  51.9446924   0.9060970  48.4490278  54.1991235  -3.0843146
  47.8855143  54.1081172  -3.8526858  48.3342673  53.3791140  -2.6040653
  53.0723245  53.4990611   6.8846169  53.0611886  53.1043409   6.0126673
  53.2343884  52.7656683   7.4779941  45.9954710  55.6942427  -0.2458925
  46.7876001  55.3533252  -0.6612626  46.2351360  55.8037402   0.6743228
  47.9545463  54.9551340  -7.3741546  48.7276339  54.4080327  -7.5128670
  48.3070862  55.8195589  -7.1627085  49.7930506  56.2827722   5.8325353
  49.5020372  57.1873353   5.7172019  50.4287490  56.3244250   6.5469423
  50.7186713  53.6604571   2.4226713  51.3150285  53.4360593   1.7083676
  50.7761684  52.9189316   3.0252161  55.3355024  50.1179785  -1.9348353
  56.1218113  49.6999208  -2.2857936  55.5993728  51.0225877  -1.7666705
  55.5065101  55.5552635  -7.2359696  54.8710934  55.6287261  -6.5238792
  55.1762508  56.1446234  -7.9140617  60.7363451  50.0555018  -1.0315375
  61.4688623  49.4854235  -0.7977545  59.9802807  49.6676618  -0.5908869
  50.0108030  53.0172112  -7.5398721  49.8944288  52.3417016  -6.8717637
  50.1210290  52.5304486  -8.3566568  52.3539571  52.4782259  -3.8352032
  51.9897778  51.9512880  -3.1239111  53.2106687  52.0880728  -4.0085547
  58.2588872  43.7676592   3.4279234  57.9272196  44.6372003   3.2040449
  57.6634485  43.4512876   4.1073264  54.7520391  55.9689138   2.8275147
  54.4521114  56.8714177   2.7190954  54.4071451  55.7021321   3.6796300
  48.2032873  52.4202935  -1.1388149  47.2783369  52.2879149  -0.9310457
  48.4517286  53.1997154  -0.6418206  58.1517535  48.4871678   0.5072584
  57.2434412  48.4187087   0.2131345  58.1005131  48.9643623   1.3354410
  51.9734279  49.9629816  -7.8544017  51.8533904  50.4086867  -7.0158537
  51.2786867  50.3115134  -8.4130479  45.5641684  52.0636208  -0.3044360
  45.6934065  52.3170687   0.6095052  44.8839135  52.6563916  -0.6239705
  49.7341171  62.7333458  -4.2053886  49.6565201  63.6841283  -4.1265405
  49.1302815  62.3879331  -3.5478959  52.2258401  49.9061324   8.4507481
  51.4491735  50.4655244   8.4410346  52.8648964  50.3918107   8.9722351
  60.0179181  46.6888116   2.2850458  59.3753562  46.9820650   1.6390253
  59.5134110  46.5741037   3.0903655  57.6719345  50.4351290  -7.0263683
  58.5837201  50.6678676  -7.2015985  57.1628992  51.0188334  -7.5888604
  50.4804773  52.7146777   8.0125448  51.2219457  53.2531821   7.7360272
  49.7741758  53.3413066   8.1697000  55.9560113  54.8575917   6.6097610
  56.3643469  54.4158328   5.8652242  55.2337374  54.2828545   6.8631803
  52.3091183  49.7948524   3.9831167  53.1552378  50.2187938   4.1265816
  52.2489820  49.1382149   4.6769730  56.2788927  55.4177108   0.3649899
  55.6497790  55.5822822  -0.3374033  55.8914589  55.8318718   1.1360863
  60.1578159  56.3531546  -2.2805738  59.4729197  56.7330447  -2.8308704
  60.2422009  56.9626873  -1.5473790  55.4590628  47.4552893   5.6412340
  55.2151560  48.2094953   5.1046616  55.7350559  47.8338240   6.4759587
  57.4129091  53.9991505   4.3189606  57.6245986  54.6423265   3.6423987
  57.3658839  53.1653822   3.8511536  55.0155320  46.6109326   1.2226178
  54.1539799  46.9090579   1.5142916  55.0417754  46.8279725   0.2907211
  51.8316889  55.1551516  -2.3700016  52.2955235  55.4339219  -3.1595394
  51.5673687  54.2534961  -2.5526926  48.7240970  54.7022998   0.5679747
  49.2942327  55.1310266  -0.0702768  49.3149082  54.4205582   1.2663933
  50.7685775  51.2774669  -5.5610451  51.4709819  51.7295712  -5.0936525
  50.4366404  50.6358487  -4.9330558  49.2166137  49.8686425   8.8140758
  48.5864797  50.5502706   9.0476155  49.1102225  49.7569507   7.8693897
  44.5111109  49.5358221  -0.2593318  43.7210163  49.7915750  -0.7353207
  45.0022357  50.3506559  -0.1541277  58.5274919  56.8763460   2.4911963
  59.3492362  56.4743648   2.2094645  58.5237322  56.7731695   3.4428079
  46.4625855  49.9002800  -3.3009841  45.6657018  50.0121495  -2.7826345
  46.2351447  50.2389453  -4.1668950  52.2931522  56.4247504   4.6472674
  52.3575955  56.8867911   5.4830846  51.5842446  55.7944869   4.7754984
  42.7948812  49.7888712   2.1721673  43.0456851  50.6735722   2.4379249
  43.3308361  49.6093313   1.3996765  66.6180912  53.2202209  -1.1603065
  65.8644620  52.6509607  -1.3159061  66.7528453  53.1864873  -0.2132431
  52.0079540  58.0915611  -5.4848346  51.8725215  58.9367147  -5.0563498
  52.5489352  58.2934889  -6.2482412  48.4946879  44.1707191  11.1766009
  48.1013825  43.6173390  11.8513654  49.3113020  44.4817770  11.5672527
  45.4608937  55.6091049  -4.9120421  45.9733458  56.4034299  -4.7614856
  46.1131650  54.9117340  -4.9786819  47.2703822  58.7256806  -2.8297668
  47.4470450  59.6474770  -3.0176684  48.0660655  58.4115225  -2.4003288
  51.4114840  45.5865070   8.7686266  52.1524554  46.1872223   8.6890728
  51.6432763  44.8442708   8.2104308  46.5556178  50.7721437   7.0464496
  46.4409694  49.8706695   7.3471595  45.7000696  51.0185134   6.6949312
  53.6348016  58.7139178   8.6451996  53.1911870  57.9275556   8.3272901
  54.2965230  58.9018328   7.9795887  48.3935137  60.2434979   3.1712675
  48.9442563  60.1152043   2.3989669  47.5546613  60.5429868   2.8207568
  55.7329254  58.9941978   6.6733397  55.7147730  59.8150859   6.1813667
  56.6549174  58.8696053   6.8983539  52.1902308  56.5086107   7.5156906
  52.7230645  55.7474395   7.2856214  51.6616390  56.2159759   8.2581060
  55.3572003  41.6146173   3.0450548  55.0136273  42.5047815   2.9689658
  55.7250966  41.4247831   2.1820133  43.4257854  53.9379704  -4.1360850
  44.2633076  54.3476712  -4.3527143  43.6036122  52.9979146  -4.1660656
  55.3222286  51.6054784  -8.4477017  54.8068910  52.3759389  -8.2088630
  55.0499595  50.9319920  -7.8243956  52.9069397  46.4504485  -3.3891779
  52.0510994  46.0611335  -3.5686140  53.3196349  46.5296446  -4.2491993
  54.4368544  43.9850828   1.0099781  53.9333339  43.9480963   0.1967586
  54.7299151  44.8943571   1.0696438  50.6811430  44.0689558   0.0165963
  51.5464426  43.8732367  -0.3428148  50.7488939  43.8399910   0.9435319
  55.1108589  49.4781876  -6.6217236  54.8058725  49.7928025  -5.7707093
  56.0639031  49.5563296  -6.5789903  53.5555021  55.6372100  -4.9724282
  53.0276383  54.9024859  -5.2851045  53.0542524  56.4146776  -5.2184314
  58.5347867  53.8321120   0.1442764  57.8771542  54.5220381   0.2322893
  59.3388266  54.2217552   0.4876751  48.2873749  46.2991766  -2.6117671
  48.8617501  46.0766947  -3.3444478  48.8744731  46.3680460  -1.8589069
  57.3453326  52.1865493  -1.8053294  57.8585208  52.8195485  -1.3031584
  57.9954550  51.5866688  -2.1709934  53.8234157  49.6614948   0.4405046
  52.9056718  49.8829895   0.2826735  54.2394300  49.7361259  -0.4183246
  54.6069205  51.0606364  -4.4292273  55.3541024  51.5727761  -4.7385151
  54.8760794  50.7390417  -3.5687880  52.8795855  53.5564905  -7.4465319
  51.9707074  53.2723938  -7.3492849  52.9090939  53.9763983  -8.3062012
  58.1115122  57.1671494  -3.6774151  57.6577449  56.3262404  -3.6208961
  57.4809089  57.8032893  -3.3399371  57.0548042  48.0963480  -2.4473484
  56.3170799  47.5840866  -2.1163241  57.3074815  47.6563862  -3.2590207
  56.5548061  59.0047991  -2.7424333  56.8471036  59.5653048  -3.4611968
  57.0646682  59.2976552  -1.9871174  57.1559669  40.8739732  -1.8531715
  57.4618546  40.0137096  -2.1405800  57.8812274  41.4657352  -2.0532721
  43.4484025  51.2770419  -3.4650117  43.2508425  50.6839780  -4.1899050
  42.8930689  50.9722629  -2.7474178  51.4280749  51.1693525  -1.3455524
  51.4829359  50.2167362  -1.4213047  50.6171951  51.3252964  -0.8614225
  49.3673109  49.7870585  -3.5865145  48.5540974  50.0864756  -3.1799953
  49.8632103  49.3926274  -2.8690663  51.5181687  59.7828342  -1.6530880
  51.4757865  60.0089188  -2.5822348  52.4344385  59.5491717  -1.5045079
  54.9647320  50.2512410   5.2449749  55.3196708  50.4783883   6.1044215
  55.6119452  50.5830786   4.6227004  60.6945057  53.3730845  -4.0500922
  60.5562956  53.5632441  -4.9779733  60.3381276  54.1350228  -3.5932871
  48.8587183  47.3588941   2.0296090  49.4986563  47.2177700   1.3319053
  48.0264714  47.0723454   1.6534692  60.7214437  55.4407372   0.9610350
  61.1550944  55.3482662   1.8093404  61.4346018  55.4164873   0.3230366
  49.6347487  56.6591371  -1.8568917  50.4288086  56.1641691  -2.0586342
  48.9239180  56.1309234  -2.2201212  54.4542332  59.0409467   2.4943450
  54.5079354  59.6100403   3.2621166  53.5857113  59.2111352   2.1297487
  45.9430251  50.8034453  -5.7809165  45.0127839  50.7418908  -5.5639203
  46.0387723  50.2810406  -6.5772523  45.8615800  47.3289266  -3.1930923
  46.1222617  48.2434599  -3.3021763  46.6832972  46.8613708  -3.0434310
  47.3340725  48.7427023   3.9767901  48.0063779  48.5344385   3.3280550
  46.5070512  48.5449109   3.5373134  61.5829987  55.4831073   3.4943235
  61.7765877  56.3876884   3.7402510  61.4830605  55.0238492   4.3281820
  53.2366297  45.3688964   5.9933562  52.5894212  46.0678913   5.8998039
  54.0067313  45.8025108   6.3609811  56.6445095  55.6337816   9.0684116
  56.4930602  55.4048368   8.1514199  56.6349775  56.5908417   9.0815461
  53.4130432  53.2069729   4.0530382  54.3422492  53.3580888   3.8799349
  52.9921462  53.2953749   3.1979029  52.2118763  57.2320393   1.8228920
  52.0729849  56.8639177   2.6954858  51.4233360  57.7468032   1.6512878
  53.7623979  56.6101996  -0.7882242  53.4273811  56.5702766   0.1075407
  53.2627924  55.9446712  -1.2611832  47.7368223  52.0169626   4.7370339
  47.5988020  51.2849865   5.3381878  48.6473146  51.9278526   4.4554526
  50.3650523  51.7289585   4.2254018  51.0750142  51.0882777   4.1840637
  50.3219831  51.9802480   5.1480199  58.3537302  58.6656938   7.1460598
  58.2949848  57.9816159   6.4791181  58.7556820  59.4075928   6.6941224
  49.0779457  48.7154803   6.0449658  48.5416814  48.2645541   6.6971254
  48.4896166  48.8500712   5.3020122  47.3728001  65.4818852  -0.0605684
  47.6124599  66.1137376   0.6173335  46.5297197  65.1306892   0.2259676
  58.3554709  56.6296522   5.3774577  57.4681488  56.2922444   5.5000976
  58.9253260  55.8979554   5.6143343  40.0083856  52.9620614  -1.2982371
  40.6954896  52.6482344  -1.8861356  39.8531985  53.8661979  -1.5715120
  44.8118578  47.8510811   3.1302652  44.7276767  47.2436480   2.3953062
  43.9901285  48.3419829   3.1312149  51.8855863  61.2897975   2.3435820
  51.8126034  62.0952946   2.8555125  51.4433256  61.4889941   1.5183842
  51.6745642  60.5269745  -4.1461358  50.8913164  61.0691425  -4.0523134
  52.3738387  61.0443724  -3.7467117  54.9842292  46.3364374  -1.5027153
  55.4810992  45.5834336  -1.8226082  54.2129274  46.3728691  -2.0683943
  62.8372050  52.0404740   0.1391139  62.8261926  52.9229455  -0.2314928
  61.9689429  51.6876291  -0.0554324  54.3454546  61.1884809   4.4993979
  55.0582518  61.8232274   4.4269881  53.8544575  61.2848675   3.6833981
  56.0672073  55.0936061  -3.9288729  55.1328352  55.2137524  -4.0984025
  56.2448741  54.1908528  -4.1928719  51.5677261  48.4781757  -1.7755468
  51.1975049  47.9252798  -1.0874562  52.0636353  47.8739891  -2.3280468
  59.4544624  50.9353381  -3.3938695  59.9205076  51.7681372  -3.4678392
  59.9052125  50.4698362  -2.6893437  49.3966460  58.9379252   5.3199550
  50.0975919  59.5715735   5.4728944  48.9261575  59.2793984   4.5595189
  57.5220855  57.2797202  -6.3952543  57.7980699  57.1653797  -5.4858669
  56.6525354  56.8814687  -6.4340370  57.4261287  43.3033968   0.6452206
  56.5124367  43.5338195   0.8134413  57.8554389  43.3872412   1.4966239
  57.1967746  51.4923860   3.1452100  56.5439196  51.7399767   2.4904553
  57.5748125  50.6787998   2.8114578  54.1574919  61.5283553  -2.7519729
  54.3397314  60.7105209  -2.2891977  54.9807905  61.7451245  -3.1894839
  53.2455319  52.2343671   9.6318137  52.5695956  52.1337800  10.3020513
  54.0682952  52.0782884  10.0954135  44.9934178  58.4715607   2.2530653
  45.5787614  57.7259295   2.3858557  44.7959016  58.7819564   3.1367316
  47.8472833  61.5066855  -2.7306905  47.1783208  61.9912982  -3.2142865
  47.7085703  61.7536075  -1.8163527  39.5851832  51.0421207   0.9735096
  39.6235932  50.5084798   1.7672214  39.0792125  50.5156413   0.3546073
  51.9878101  63.5410598   3.8675753  52.5396409  63.7042220   4.6324839
  52.3284295  64.1315036   3.1955778  46.9642595  45.8885748   4.4697638
  47.0283921  46.7500579   4.0575036  46.9009715  45.2759750   3.7369997
  46.4394867  47.9608880   8.1170672  47.0666906  47.5785958   8.7308197
  45.5822786  47.7423082   8.4826365  56.8388976  58.3671856   9.7224408
  57.3828880  58.9801814   9.2279363  56.2575821  58.9251434  10.2391421
  55.1246489  61.4892574   0.8539435  54.9997628  60.6882314   0.3450381
  55.7825580  61.9838767   0.3653405  46.7454657  47.8441306   0.0316576
  46.0241243  48.4577274  -0.1075951  47.5347913  48.3799071  -0.0466778
  57.1881397  59.2901594   2.4818986  56.2411733  59.1706945   2.4097312
  57.5364170  58.4024092   2.5645247  49.5480970  45.1795733   6.3057227
  50.0715372  45.4258029   7.0683537  49.3293304  46.0115767   5.8860365
  54.1927830  59.0854310  -1.3176662  54.0452793  58.1571017  -1.1369092
  55.0181324  59.1074401  -1.8019587  48.0590075  47.7372377  -5.4596170
  48.3986147  48.2658298  -6.1817562  48.5062195  48.0752783  -4.6837604
  57.7961952  59.9082869  -0.2311789  58.7208500  59.7025730  -0.3687338
  57.6277256  59.6599270   0.6777552  50.7533516  46.1209428   3.9906898
  50.4130336  45.3217241   4.3927578  50.0472522  46.4211139   3.4183731
  51.4049987  43.2058740   2.4434221  52.2276057  42.7319218   2.3213111
  51.6488051  43.9849224   2.9432907  54.1889345  46.9392148  -6.3244545
  54.4052959  47.8216785  -6.6255717  53.7083412  46.5478361  -7.0538903
  48.9288566  49.8977861   0.2526200  48.7833147  50.2118164   1.1450481
  48.4513770  50.5162761  -0.3002902  50.7884949  46.8880409   0.3007089
  50.7746518  45.9921502  -0.0360613  51.5057377  46.8951073   0.9345375
  52.6411080  47.3217749   2.3460217  52.3828858  48.2434820   2.3444547
  52.1096120  46.9248184   3.0360681  43.4034228  52.4383205   3.1913861
  42.8587696  53.2143013   3.3234135  44.2813578  52.7854010   3.0332982
  50.1921845  45.7694789  -4.4305341  50.3137756  44.8411435  -4.2314453
  49.9023887  45.7833475  -5.3427025  53.0613035  43.4549700  -1.2938621
  53.0834732  43.5189033  -2.2486641  53.4781094  42.6154208  -1.0998115
  63.4396660  53.1904959  -3.2559398  63.8827806  52.4412284  -3.6540275
  62.5623170  53.1815095  -3.6385666  44.1900250  51.5653101   6.0844018
  43.4481986  51.7135737   6.6708648  43.8692994  51.8261367   5.2210767
  52.1343913  61.1069080   5.8824408  52.4431039  60.8618226   6.7547107
  52.9319395  61.3115718   5.3943278  52.1564525  63.2606989  -1.8870216
  51.7169515  62.7683368  -1.1937359  52.9072642  62.7179957  -2.1278141
  44.6356864  59.4518530  -1.8845588  45.4614884  59.1522302  -2.2646944
  44.2850916  58.6826153  -1.4355799  49.6038397  58.8044998   0.1852086
  48.9818406  58.1415703  -0.1145686  50.2743264  58.8306130  -0.4974266
  42.8365469  57.3704857  -0.9256654  41.9997377  56.9427031  -1.1072653
  42.8089114  57.5637300   0.0114137  49.6762924  47.2826786   9.7784592
  49.7251080  48.1588909   9.3962362  50.2185439  46.7404180   9.2056235
  60.1617770  57.8267910   9.0585729  59.3713314  57.8092049   8.5190228
  59.9251125  58.3656203   9.8134766  60.2815645  54.6760376   6.3718458
  60.3313650  54.5110384   7.3133980  60.1729569  53.8087635   5.9816338
  49.1651904  57.3548922  -6.3389454  49.3140024  58.0384386  -6.9922781
  49.9718347  57.3354012  -5.8239998  57.5719408  50.6591304   7.6877764
  58.4729270  50.5197769   7.3961762  57.6467382  50.8245759   8.6275942
  51.9062213  48.0358159   6.5330951  51.0365522  48.3291725   6.2613539
  52.1421693  48.6198604   7.2538214  61.7833842  57.0957318   6.6160479
  61.4918650  57.4587298   7.4523940  61.1705973  56.3824326   6.4373811
  62.9829524  54.6610197  -0.8636951  63.8176416  55.1000001  -0.6999390
  63.1188653  54.1848851  -1.6828705  60.0321030  52.2189932   5.0840537
  60.5075152  52.4117579   4.2759388  59.1086596  52.2749118   4.8383921
  46.9204537  53.3814099  -5.3328385  46.6750579  52.4776429  -5.1348175
  47.0900451  53.3831250  -6.2748907  54.6101247  44.2537776   4.0496371
  55.1283191  44.9898803   3.7242860  54.2556380  44.5601769   4.8843130
  54.8613841  40.6738058  -0.4302732  55.1415595  40.0061247   0.1957694
  55.6464448  40.8667154  -0.9428069  58.7322699  49.0955692   3.3168843
  59.6840122  49.1953790   3.3381067  58.5626150  48.3033961   3.8266927
  56.7537079  46.1811276   3.5028244  56.1587011  46.4616288   2.8074732
  56.4686775  46.6705176   4.2744985  61.2110777  52.3161812   2.4311142
  61.1787097  51.3777813   2.6170826  61.8211401  52.3945849   1.6976967
  61.3605266  49.1072855   2.4769426  60.8444314  48.3231312   2.2899354
  62.2445214  48.7791572   2.6415945  59.0215992  42.8513871  -1.5634762
  58.8240814  42.5428959  -0.6791430  59.6315698  43.5775510  -1.4336832
  67.0287327  53.3777819   1.5717179  67.7590715  53.1163107   2.1324882
  66.4194272  52.6406541   1.6119247  65.1102624  51.5185681   2.1691630
  64.3835788  51.3841646   1.5608122  64.6949911  51.8262510   2.9748348
  52.9332800  55.2375611   9.9339003  53.8535810  55.4154210  10.1279050
  52.8982383  54.2931656   9.7818703  42.1514965  50.4314205  -1.1407722
  41.8317750  49.5779513  -1.4333348  41.6048394  50.6462783  -0.3849755
  45.9294873  53.1476646   2.5761785  46.1480883  54.0793754   2.5949818
  46.3420647  52.7884620   3.3616588  52.8499091  43.6544731  -5.4362527
  52.0399819  43.3091816  -5.0607281  53.5383508  43.3452275  -4.8474916
  54.7789639  42.7322778  -3.8138230  55.3320678  43.1518231  -3.1548207
  55.0159725  41.8058526  -3.7715274  50.8022738  48.7209852  11.9664533
  50.7019465  49.6704208  11.8976625  50.5844280  48.3928090  11.0940604
  42.0203225  54.0517116   0.8285400  41.3266697  53.6371069   0.3155354
  42.7676216  54.0937653   0.2318818  58.1568446  44.8423303  -4.3059566
  57.5767115  45.5008107  -4.6881514  57.8904379  44.0200648  -4.7172149
  56.6072013  44.2428361  -2.1038246  57.1071791  44.3544895  -2.9123927
  57.2507620  43.9389414  -1.4637437  50.6654008  52.1506990  10.7829595
  50.1821090  52.9507350  10.9893484  50.7514947  52.1614935   9.8297039
  43.9339968  53.9835370  -1.2948586  43.9110656  54.0823057  -2.2466702
  44.2440604  54.8300521  -0.9731419  46.5927346  56.0411525   2.8198029
  47.5470599  56.0095467   2.7527960  46.3939869  55.5802149   3.6348255
  47.1826728  54.6112641   5.3868827  48.0019617  55.1056720   5.4103664
  47.4563536  53.6944609   5.3586394  56.9393324  47.0023393  -5.2503218
  56.0519179  47.2873044  -5.4683023  57.3547313  46.8417157  -6.0975941
  60.2907860  47.0269914  -1.5348879  61.0668250  47.5166367  -1.2624262
  59.5655994  47.4527969  -1.0777009  62.7280419  47.7397534  -0.4774938
  63.3224910  47.4993270  -1.1881630  62.8007003  47.0204664   0.1498598
  44.9477575  61.5831145  -0.1631773  44.8132043  60.8231545  -0.7293775
  44.5309637  62.3072044  -0.6302984  56.9134348  52.5177929  -5.0352928
  56.8569549  52.9746481  -5.8745295  57.4662690  51.7568614  -5.2130085
  60.7239154  48.3067661  -4.2102808  60.4676088  47.9064297  -3.3794601
  60.0992022  49.0211455  -4.3352669  65.0351492  51.0463734  -1.7031517
  64.4751050  51.1156924  -0.9299955  64.4294995  50.8704719  -2.4232021
  48.1046700  62.4800462   0.0486669  47.9879085  63.4245894  -0.0534640
  47.2839147  62.1774023   0.4372469  42.4361642  48.9450775   6.0861024
  43.0820506  48.4349729   6.5748249  42.2278793  49.6819457   6.6604449
  54.9615034  56.0131622  11.5853164  55.8306194  56.1872275  11.2239799
  54.4821786  56.8326039  11.4628894  49.1301215  63.1328723   3.2642598
  50.0328461  63.1652334   3.5809093  48.9038585  62.2029174   3.2788934
  50.8854817  61.8859710  -0.0747324  49.9350448  61.8861572  -0.1882951
  51.1887303  61.1392445  -0.5911289  54.7717372  39.8033596  -3.9069143
  54.0049768  39.2492083  -3.7612461  55.1828077  39.8755465  -3.0454992
  46.7759133  46.0918392  10.1836038  47.6390595  45.7355197  10.3939362
  46.2024544  45.7532287  10.8711442  63.9116999  68.8282528   6.8846169
  63.9005640  68.4335327   6.0126673  64.0737639  68.0948601   7.4779941
  60.6324261  71.6119640   5.8325353  60.3414127  72.5165271   5.7172019
  61.2681245  71.6536168   6.5469423  69.0982626  59.0968510   3.4279234
  68.7665951  59.9663921   3.2040449  68.5028239  58.7804794   4.1073264
  56.4035438  67.3928126  -0.3044360  56.5327819  67.6462605   0.6095052
  55.7232889  67.9855834  -0.6239705  63.0652155  65.2353241   8.4507481
  62.2885489  65.7947161   8.4410346  63.7042718  65.7210024   8.9722351
  70.8572936  62.0180034   2.2850458  70.2147316  62.3112567   1.6390253
  70.3527864  61.9032954   3.0903655  61.3198528  68.0438695   8.0125448
  62.0613212  68.5823739   7.7360272  60.6135513  68.6704983   8.1697000
  66.7953867  70.1867835   6.6097610  67.2037223  69.7450246   5.8652242
  66.0731129  69.6120463   6.8631803  63.1484937  65.1240442   3.9831167
  63.9946132  65.5479855   4.1265816  63.0883575  64.4674066   4.6769730
  66.2984383  62.7844810   5.6412340  66.0545314  63.5386871   5.1046616
  66.5744313  63.1630158   6.4759587  65.8549074  61.9401243   1.2226178
  64.9933553  62.2382497   1.5142916  65.8811509  62.1571642   0.2907211
  60.0559891  65.1978343   8.8140758  59.4258552  65.8794624   9.0476155
  59.9495979  65.0861424   7.8693897  55.3504864  64.8650139  -0.2593318
  54.5603918  65.1207667  -0.7353207  55.8416111  65.6798477  -0.1541277
  63.1325277  71.7539421   4.6472674  63.1969709  72.2159829   5.4830846
  62.4236201  71.1236786   4.7754984  53.6342567  65.1180629   2.1721673
  53.8850605  66.0027639   2.4379249  54.1702115  64.9385231   1.3996765
  59.3340634  59.4999109  11.1766009  58.9407580  58.9465307  11.8513654
  60.1506774  59.8109687  11.5672527  62.2508595  60.9156988   8.7686266
  62.9918308  61.5164141   8.6890728  62.4826518  60.1734626   8.2104308
  57.3949933  66.1013355   7.0464496  57.2803448  65.1998612   7.3471595
  56.5394451  66.3477052   6.6949312  64.4741771  74.0431095   8.6451996
  64.0305625  73.2567474   8.3272901  65.1358984  74.2310246   7.9795887
  63.0296063  71.8378025   7.5156906  63.5624400  71.0766313   7.2856214
  62.5010144  71.5451677   8.2581060  66.1965758  56.9438091   3.0450548
  65.8530027  57.8339732   2.9689658  66.5644721  56.7539748   2.1820133
  65.2762298  59.3142746   1.0099781  64.7727094  59.2772881   0.1967586
  65.5692905  60.2235489   1.0696438  61.5205184  59.3981476   0.0165963
  62.3858181  59.2024284  -0.3428148  61.5882693  59.1691827   0.9435319
  61.4290171  58.5024932  -3.8842601  60.7754583  58.1873950  -4.5085986
  61.3870645  57.8800673  -3.1582778  67.9953424  56.2031650  -1.8531715
  68.3012300  55.3429013  -2.1405800  68.7206028  56.7949270  -2.0532721
  65.8041075  65.5804327   5.2449749  66.1590463  65.8075800   6.1044215
  66.4513206  65.9122704   4.6227004  59.6980938  62.6880858   2.0296090
  60.3380317  62.5469617   1.3319053  58.8658469  62.4015372   1.6534692
  58.1734480  64.0718940   3.9767901  58.8457533  63.8636303   3.3280550
  57.3464266  63.8741026   3.5373134  64.0760052  60.6980881   5.9933562
  63.4287967  61.3970831   5.8998039  64.8461067  61.1317025   6.3609811
  67.4838850  70.9629734   9.0684116  67.3324356  70.7340285   8.1514199
  67.4743529  71.9200335   9.0815461  64.2524186  68.5361646   4.0530382
  65.1816246  68.6872806   3.8799349  63.8315216  68.6245667   3.1979029
  58.5761977  67.3461543   4.7370339  58.4381775  66.6141782   5.3381878
  59.4866900  67.2570444   4.4554526  61.2044278  67.0581503   4.2254018
  61.9143896  66.4174695   4.1840637  61.1613586  67.3094398   5.1480199
  59.9173212  64.0446721   6.0449658  59.3810569  63.5937459   6.6971254
  59.3289920  64.1792629   5.3020122  50.8477611  68.2912532  -1.2982371
  51.5348651  67.9774262  -1.8861356  50.6925739  69.1953896  -1.5715120
  55.6512333  63.1802728   3.1302652  55.5670522  62.5728398   2.3953062
  54.8295039  63.6711747   3.1312149  60.2360214  74.2671170   5.3199550
  60.9369674  74.9007653   5.4728944  59.7655329  74.6085901   4.5595189
  68.2655042  58.6325885   0.6452206  67.3518121  58.8630112   0.8134413
  68.6948143  58.7164329   1.4966239  64.0849073  67.5635588   9.6318137
  63.4089710  67.4629718  10.3020513  64.9076707  67.4074802  10.0954135
  50.4245587  66.3713125   0.9735096  50.4629686  65.8376716   1.7672214
  49.9185880  65.8448331   0.3546073  57.8036349  61.2177666   4.4697638
  57.8677676  62.0792497   4.0575036  57.7403469  60.6051667   3.7369997
  57.2788622  63.2900798   8.1170672  57.9060660  62.9077875   8.7308197
  56.4216541  63.0715000   8.4826365  67.6782730  73.6963773   9.7224408
  68.2222634  74.3093732   9.2279363  67.0969575  74.2543352  10.2391421
  57.5848411  63.1733224   0.0316576  56.8634997  63.7869192  -0.1075951
  58.3741667  63.7090989  -0.0466778  60.3874725  60.5087650   6.3057227
  60.9109127  60.7549947   7.0683537  60.1687058  61.3407685   5.8860365
  61.5927270  61.4501345   3.9906898  61.2524090  60.6509159   4.3927578
  60.8866276  61.7503056   3.4183731  62.2443742  58.5350658   2.4434221
  63.0669811  58.0611136   2.3213111  62.4881805  59.3141142   2.9432907
  59.7682321  65.2269779   0.2526200  59.6226901  65.5410082   1.1450481
  59.2907524  65.8454679  -0.3002902  61.6278703  62.2172326   0.3007089
  61.6140272  61.3213420  -0.0360613  62.3451132  62.2242990   0.9345375
  63.4804834  62.6509667   2.3460217  63.2222612  63.5726737   2.3444547
  62.9489875  62.2540101   3.0360681  54.2427983  67.7675123   3.1913861
  53.6981451  68.5434931   3.3234135  55.1207333  68.1145927   3.0332982
  63.9006790  58.7841617  -1.2938621  63.9228487  58.8480950  -2.2486641
  64.3174849  57.9446126  -1.0998115  55.0294005  66.8945019   6.0844018
  54.2875741  67.0427655   6.6708648  54.7086749  67.1553285   5.2210767
  60.5156679  62.6118704   9.7784592  60.5644834  63.4880827   9.3962362
  61.0579193  62.0696097   9.2056235  71.0011525  73.1559827   9.0585729
  70.2107068  73.1383966   8.5190228  70.7644879  73.6948121   9.8134766
  71.1209400  70.0052294   6.3718458  71.1707405  69.8402301   7.3133980
  71.0123323  69.1379553   5.9816338  68.4113162  65.9883222   7.6877764
  69.3123025  65.8489687   7.3961762  68.4861137  66.1537677   8.6275942
  62.7455967  63.3650077   6.5330951  61.8759277  63.6583643   6.2613539
  62.9815448  63.9490522   7.2538214  65.4495001  59.5829693   4.0496371
  65.9676945  60.3190720   3.7242860  65.0950134  59.8893687   4.8843130
  65.7007595  56.0029976  -0.4302732  65.9809349  55.3353165   0.1957694
  66.4858202  56.1959072  -0.9428069  69.5716454  64.4247610   3.3168843
  70.5233877  64.5245708   3.3381067  69.4019904  63.6325879   3.8266927
  67.5930833  61.5103193   3.5028244  66.9980765  61.7908206   2.8074732
  67.3080530  61.9997094   4.2744985  63.7726555  70.5667529   9.9339003
  64.6929564  70.7446128  10.1279050  63.7376138  69.6223574   9.7818703
  52.9908720  65.7606122  -1.1407722  52.6711504  64.9071431  -1.4333348
  52.4442148  65.9754701  -0.3849755  56.7688627  68.4768563   2.5761785
  56.9874637  69.4085671   2.5949818  57.1814401  68.1176538   3.3616588
  61.6416493  64.0501769  11.9664533  61.5413220  64.9996126  11.8976625
  61.4238035  63.7220008  11.0940604  52.8596980  69.3809034   0.8285400
  52.1660451  68.9662987   0.3155354  53.6069971  69.4229570   0.2318818
  61.5047763  67.4798908  10.7829595  61.0214845  68.2799268  10.9893484
  61.5908702  67.4906853   9.8297039  57.4321100  71.3703443   2.8198029
  58.3864354  71.3387385   2.7527960  57.2333624  70.9094066   3.6348255
  58.0220482  69.9404559   5.3868827  58.8413371  70.4348637   5.4103664
  58.2957290  69.0236527   5.3586394  53.2755397  64.2742693   6.0861024
  53.9214260  63.7641647   6.5748249  53.0672548  65.0111374   6.6604449
  65.8008789  71.3423540  11.5853164  66.6699949  71.5164192  11.2239799
  65.3215540  72.1617957  11.4628894  65.6111127  55.1325514  -3.9069143
  64.8443522  54.5784001  -3.7612461  66.0221832  55.2047383  -3.0454992
  57.6152888  61.4210310  10.1836038  58.4784349  61.0647115  10.3939362
  57.0418298  61.0824205  10.8711442  70.1734388  74.8291026  11.1766009
  69.7801334  74.2757225  11.8513654  70.9900529  75.1401605  11.5672527
  68.4546642  76.7502227  10.1836038  69.3178104  76.3939032  10.3939362
  67.8812053  76.4116122  10.8711442  63.9117001  45.8344651  -6.3908524
  63.9005641  45.4397449  -7.2628021  64.0737640  45.1010723  -5.7974753
  60.6324262  48.6181763  -7.4429340  60.3414128  49.5227393  -7.5582674
  61.2681246  48.6598290  -6.7285271  63.0652156  42.2415364  -4.8247212
  62.2885491  42.8009284  -4.8344347  63.7042720  42.7272147  -4.3032342
  61.3198529  45.0500817  -5.2629245  62.0613213  45.5885861  -5.5394421
  60.6135514  45.6767106  -5.1057693  66.7953868  47.1929958  -6.6657084
  67.2037224  46.7512368  -7.4102451  66.0731130  46.6182585  -6.4122891
  63.1484938  42.1302565  -9.2923527  63.9946134  42.5541978  -9.1488878
  63.0883576  41.4736189  -8.5984964  66.2984384  39.7906933  -7.6342353
  66.0545316  40.5448993  -8.1708077  66.5744314  40.1692280  -6.7995106
  60.0559893  42.2040465  -4.4613935  59.4258553  42.8856746  -4.2278538
  59.9495980  42.0923547  -5.4060797  63.1325278  48.7601544  -8.6282020
  63.1969710  49.2221951  -7.7923848  62.4236202  48.1298909  -8.4999710
  59.3340635  36.5061231  -2.0988684  58.9407581  35.9527430  -1.4241040
  60.1506776  36.8171810  -1.7082166  62.2508596  37.9219110  -4.5068427
  62.9918310  38.5226264  -4.5863965  62.4826519  37.1796748  -5.0650385
  57.3949934  43.1075478  -6.2290198  57.2803449  42.2060735  -5.9283099
  56.5394452  43.3539174  -6.5805381  64.4741772  51.0493218  -4.6302697
  64.0305626  50.2629597  -4.9481793  65.1358986  51.2372368  -5.2958806
  63.0296064  48.8440147  -5.7597788  63.5624401  48.0828436  -5.9898480
  62.5010145  48.5513799  -5.0173633  65.8041076  42.5866450  -8.0304944
  66.1590464  42.8137923  -7.1710479  66.4513207  42.9184827  -8.6527689
  67.4838851  47.9691856  -4.2070578  67.3324357  47.7402408  -5.1240494
  67.4743530  48.9262458  -4.1939233  64.2524187  45.5423769  -9.2224311
  65.1816247  45.6934928  -9.3955344  63.8315217  45.6307790 -10.0775665
  58.5761978  44.3523666  -8.5384355  58.4381776  43.6203905  -7.9372816
  59.4866902  44.2632566  -8.8200167  61.2044279  44.0643625  -9.0500675
  61.9143897  43.4236818  -9.0914057  61.1613587  44.3156520  -8.1274494
  60.2360215  51.2733292  -7.9555143  60.9369675  51.9069775  -7.8025749
  59.7655330  51.6148024  -8.7159504  64.0849074  44.5697711  -3.6436556
  63.4089711  44.4691840  -2.9734181  64.9076708  44.4136925  -3.1800559
  57.2788623  40.2962921  -5.1584021  57.9060662  39.9139998  -4.5446497
  56.4216542  40.0777123  -4.7928329  67.6782732  50.7025896  -3.5530286
  68.2222635  51.3155854  -4.0475331  67.0969576  51.2605474  -3.0363273
  60.5156680  39.6180827  -3.4970101  60.5644836  40.4942950  -3.8792332
  61.0579194  39.0758220  -4.0698458  71.0011526  50.1621950  -4.2168964
  70.2107070  50.1446089  -4.7564465  70.7644880  50.7010244  -3.4619928
  71.1209401  47.0114416  -6.9036236  71.1707406  46.8464424  -5.9620713
  71.0123324  46.1441675  -7.2938355  68.4113163  42.9945344  -5.5876929
  69.3123026  42.8551809  -5.8792931  68.4861138  43.1599799  -4.6478752
  62.7455969  40.3712199  -6.7423743  61.8759278  40.6645765  -7.0141154
  62.9815449  40.9552644  -6.0216479  69.5716455  41.4309733  -9.9585851
  70.5233878  41.5307830  -9.9373627  69.4019905  40.6388001  -9.4487766
  63.7726556  47.5729651  -3.3415690  64.6929566  47.7508250  -3.1475644
  63.7376139  46.6285697  -3.4935991  61.6416494  41.0563892  -1.3090160
  61.5413221  42.0058249  -1.3778069  61.4238036  40.7282131  -2.1814090
  61.5047764  44.4861031  -2.4925098  61.0214846  45.2861391  -2.2861209
  61.5908703  44.4968976  -3.4457654  57.4321102  48.3765565 -10.4556664
  58.3864355  48.3449508 -10.5226733  57.2333625  47.9156189  -9.6406439
  58.0220484  46.9466681  -7.8885867  58.8413373  47.4410760  -7.8651030
  58.2957291  46.0298650  -7.9168299  65.8008790  48.3485663  -1.6901529
  66.6699950  48.5226315  -2.0514894  65.3215542  49.1680080  -1.8125800
  57.6152889  38.4272432  -3.0918656  58.4784351  38.0709237  -2.8815331
  57.0418300  38.0886327  -2.4043251  70.1734390  51.8353149  -2.0988684
  69.7801335  51.2819348  -1.4241040  70.9900530  52.1463727  -1.7082166
  68.4546643  53.7564350  -3.0918656  69.3178105  53.4001155  -2.8815331
  67.8812054  53.4178245  -2.4043251   1.5818381  76.2140088  38.6661012
   0.8282089  75.6447486  38.5105016   1.7165922  76.1802753  39.6131646
   1.9924796  76.3715698  41.3981256   2.7228185  76.1100986  41.9588959
   1.3831742  75.6344420  41.4383324   1.1386248  88.4409581  37.8915724
   1.9249337  88.0229005  37.5406141   1.4024952  89.3455674  38.0597372
   6.5394675  88.3784815  38.7948702   7.2719847  87.8084031  39.0286532
   5.7834031  87.9906415  39.2355208   4.0620095  82.0906389  43.2543311
   3.7303420  82.9601800  43.0304526   3.4665709  81.7742673  43.9337341
   3.9548759  86.8101475  40.3336661   3.0465636  86.7416883  40.0395422
   3.9036354  87.2873420  41.1618487   5.8210405  85.0117913  42.1114535
   5.1784785  85.3050446  41.4654330   5.3165334  84.8970834  42.9167732
   3.4750569  88.7581087  32.8000394   4.3868425  88.9908473  32.6248092
   2.9660216  89.3418131  32.2375473   1.2621852  85.7782689  45.4676417
   1.0182784  86.5324750  44.9310693   1.5381782  86.1568037  46.3023664
  12.4212136  91.5432006  38.6661012  11.6675844  90.9739404  38.5105016
  12.5559677  91.5094670  39.6131646   1.1603227  79.9375970  42.8714625
   0.8167497  80.8277612  42.7953735   1.5282190  79.7477628  42.0084210
   2.8579266  86.4193277  37.3790593   2.1202022  85.9070663  37.7100836
   3.1106039  85.9793659  36.5673870   2.9590893  79.1969529  37.9732362
   3.2649770  78.3366893  37.6858277   3.6843498  79.7887149  37.7731356
   0.7678544  88.5742206  45.0713826   1.1227932  88.8013680  45.9308292
   1.4150675  88.9060583  44.4491081   8.6403273  90.3634537  39.9655216
   8.6293150  91.2459252  39.5949149   7.7720653  90.0106087  39.7709753
   5.2575848  89.2583178  36.4325382   5.7236300  90.0911169  36.3585685
   5.7083349  88.7928159  37.1370640   3.2292511  81.6263765  40.4716283
   2.3155591  81.8567991  40.6398490   3.6585612  81.7102209  41.3230316
   9.2427883  91.5134756  36.5704679   9.6859029  90.7642081  36.1723802
   8.3654394  91.5044892  36.1878411   3.3750631  88.9821101  47.5141841
   4.2760494  88.8427566  47.2225839   3.4498606  89.1475556  48.4540019
   5.8352254  90.5419729  44.9104614   6.3106376  90.7347375  44.1023465
   4.9117819  90.5978915  44.6647998   0.6645065  78.9967855  39.3961345
   0.9446818  78.3291044  40.0221771   1.4495672  79.1896951  38.8836008
   4.5353923  87.4185489  43.1432920   5.4871346  87.5183587  43.1645144
   4.3657373  86.6263758  43.6531004   2.5568302  84.5041072  43.3292321
   1.9618235  84.7846085  42.6338809   2.2717999  84.9934973  44.1009062
   7.0142001  90.6391609  42.2575219   6.9818321  89.7007610  42.4434903
   7.6242624  90.7175646  41.5241044   7.1636489  87.4302652  42.3033503
   6.6475538  86.6461109  42.1163431   8.0476438  87.1021369  42.4680022
   4.8247216  81.1743668  38.2629315   4.6272037  80.8658756  39.1472647
   5.4346922  81.9005307  38.3927245  12.8318551  91.7007616  41.3981256
  13.5621939  91.4392904  41.9588959  12.2225496  90.9636338  41.4383324
  10.9133848  89.8415478  41.9955707  10.1867011  89.7071443  41.3872199
  10.4981135  90.1492307  42.8012425   3.9599670  83.1653100  35.5204511
   3.3798339  83.8237904  35.1382563   3.6935603  82.3430445  35.1091928
   2.4103236  82.5658158  37.7225831   2.9103015  82.6774692  36.9140150
   3.0538844  82.2619210  38.3626640   2.7424548  85.3253190  34.5760859
   1.8550403  85.6102841  34.3581054   3.1578537  85.1646954  33.7288136
   6.0939084  85.3499711  38.2915198   6.8699474  85.8396164  38.5639815
   5.3687218  85.7757765  38.7487068   8.5311643  86.0627330  39.3489139
   9.1256134  85.8223066  38.6382447   8.6038226  85.3434461  39.9762675
   6.5270378  86.6297458  35.6161269   6.2707312  86.2294094  36.4469476
   5.9023246  87.3441252  35.4911408  10.8382715  89.3693531  38.1232560
  10.2782273  89.4386721  38.8964122  10.2326219  89.1934516  37.4032056
   1.5818382  53.2202211  25.3906318   0.8282091  52.6509609  25.2350323
   1.7165924  53.1864875  26.3376953   1.9924797  53.3777821  28.1226563
   2.7228186  53.1163109  28.6834266   1.3831743  52.6406543  28.1628631
   1.5844981  67.7220250  27.5407822   2.2223391  67.6026998  26.8371163
   1.4665824  68.6701094  27.5995775   1.1386249  65.4471704  24.6161031
   1.9249338  65.0291127  24.2651448   1.4024953  66.3517796  24.7842679
   6.5394676  65.3846937  25.5194009   7.2719848  64.8146154  25.7531839
   5.7834032  64.9968538  25.9600515   4.0620097  59.0968511  29.9788618
   3.7303421  59.9663922  29.7549833   3.4665710  58.7804795  30.6582648
   3.9548760  63.8163598  27.0581968   3.0465637  63.7479006  26.7640729
   3.9036356  64.2935542  27.8863793   5.8210406  62.0180036  28.8359842
   5.1784787  62.3112569  28.1899636   5.3165335  61.9032956  29.6413038
   3.4750570  65.7643209  19.5245701   4.3868426  65.9970596  19.3493398
   2.9660217  66.3480253  18.9620779   1.7591338  70.1867837  33.1606993
   2.1674694  69.7450247  32.4161626   1.0368599  69.6120464  33.4141186
   2.0820152  70.7469028  26.9159282   1.4529015  70.9114742  26.2135350
   1.6945814  71.1610637  27.6870246   5.9609384  71.6823465  24.2703646
   5.2760422  72.0622367  23.7200679   6.0453234  72.2918792  25.0035594
   1.2621853  62.7844812  32.1921724   1.0182785  63.5386873  31.6556000
   1.5381784  63.1630160  33.0268971   3.2160316  69.3283424  30.8698990
   3.4277211  69.9715184  30.1933371   3.1690064  68.4945741  30.4020920
   4.3306144  72.2055380  29.0421347   5.1523588  71.8035567  28.7604029
   4.3268547  72.1023614  29.9937463  12.4212137  68.5494128  25.3906318
  11.6675845  67.9801526  25.2350323  12.5559678  68.5156793  26.3376953
   1.5360479  74.3233897  33.2242781   1.5178955  75.1442778  32.7323050
   2.4580399  74.1987972  33.4492922   1.1603228  56.9438093  29.5959931
   0.8167498  57.8339734  29.5199042   1.5282191  56.7539750  28.7329516
   6.0987785  69.6879058  20.0385540   5.3217228  69.3490218  19.5940702
   6.7779266  69.6931681  19.3640505   4.3379092  69.1613040  26.6952148
   3.6802767  69.8512301  26.7832276   5.1419491  69.5509471  27.0386134
   3.1484551  67.5157412  24.7456090   3.6616433  68.1487404  25.2477799
   3.7985775  66.9158608  24.3799450   3.9146347  72.4963414  22.8735232
   3.4608674  71.6554324  22.9300423   3.2840314  73.1324812  23.2110012
   2.8579267  63.4255400  24.1035900   2.1202024  62.9132786  24.4346142
   3.1106040  62.9855781  23.2919177   2.3579286  74.3339910  23.8085050
   2.6502261  74.8944967  23.0897416   2.8677907  74.6268471  24.5638209
   2.9590894  56.2031652  24.6977669   3.2649771  55.3429015  24.4103584
   3.6843499  56.7949272  24.4976663   0.7678545  65.5804329  31.7959133
   1.1227933  65.8075802  32.6553598   1.4150677  65.9122706  31.1736388
   6.4976282  68.7022765  22.5008462   6.3594181  68.8924361  21.5729651
   6.1412501  69.4642148  22.9576513   6.5245662  70.7699292  27.5119733
   6.9582169  70.6774581  28.3602787   7.2377243  70.7456792  26.8739749
   7.3861212  70.8122993  30.0452619   7.5797102  71.7168803  30.2911894
   7.2861830  70.3530412  30.8791204   2.4476320  70.9629735  35.6193499
   2.2961827  70.7340287  34.7023583   2.4381000  71.9200337  35.6324844
   4.1568527  73.9948858  33.6969981   4.0981073  73.3108078  33.0300564
   4.5588045  74.7367848  33.2450607   4.1585934  71.9588442  31.9283961
   3.2712713  71.6214364  32.0510360   4.7284485  71.2271473  32.1652726
   8.6403275  67.3696659  26.6900522   8.6293151  68.2521375  26.3194456
   7.7720654  67.0168210  26.4955060   1.8703298  70.4227981  22.6220654
   0.9359577  70.5429443  22.4525359   2.0479966  69.5200448  22.3580664
   5.2575849  66.2645300  23.1570689   5.7236302  67.0973292  23.0830991
   5.7083350  65.7990282  23.8615947   3.3252080  72.6089121  20.1556841
   3.6011924  72.4945716  21.0650715   2.4556579  72.2106606  20.1169014
   3.2292512  58.6325887  27.1961590   2.3155592  58.8630114  27.3643797
   3.6585614  58.7164331  28.0475622   2.9998971  66.8215779  29.6961484
   2.3470421  67.0691687  29.0413937   3.3779350  66.0079917  29.3623961
   2.6420201  73.6963775  36.2733791   3.1860105  74.3093733  35.7788746
   2.0607046  74.2543354  36.7900804   0.9277714  76.8184493  27.4048819
   0.8028853  76.0174233  26.8959765   1.5856805  77.3130686  26.9162789
   2.9912622  74.6193513  29.0328369   2.0442958  74.4998864  28.9606696
   3.3395395  73.7316011  29.1154631   3.5993177  75.2374788  26.3197594
   4.5239725  75.0317649  26.1822045   3.4308481  74.9891189  27.2286936
   3.3888493  75.7560456  21.6759686   3.5625371  75.1906878  20.9233538
   3.8817385  76.5561350  21.4939176   9.2427885  68.5196879  23.2949985
   9.6859031  67.7704204  22.8969109   8.3654395  68.5107015  22.9123717
   6.2755089  72.5226926  20.3043915   6.8006413  72.8614198  19.5793235
   6.1877442  71.5873941  20.1207049   5.9648995  73.1559829  35.6095113
   5.1744539  73.1383968  35.0699612   5.7282350  73.6948123  36.3644149
   6.0846870  70.0052296  32.9227841   6.1344875  69.8402303  33.8643364
   5.9760794  69.1379555  32.5325722   3.3750633  65.9883224  34.2387148
   4.2760495  65.8489688  33.9471146   3.4498607  66.1537678  35.1785325
   7.5865067  72.4249237  33.1669863   7.2949875  72.7879218  34.0033324
   6.9737198  71.7116245  32.9883195   8.7860749  69.9902117  25.6872433
   9.6207641  70.4291921  25.8509993   8.9219878  69.5140770  24.8680679
   5.8352255  67.5481852  31.6349921   6.3106377  67.7409498  30.8268772
   4.9117821  67.6041038  31.3893304   0.6645066  56.0029978  26.1206651
   0.9446820  55.3353167  26.7467078   1.4495673  56.1959073  25.6081315
   4.5353924  64.4247612  29.8678226   5.4871347  64.5245709  29.8890450
   4.3657375  63.6325880  30.3776311   2.5568304  61.5103195  30.0537627
   1.9618236  61.7908208  29.3584116   2.2718000  61.9997096  30.8254368
   7.0142002  67.6453731  28.9820526   6.9818322  66.7069732  29.1680210
   7.6242626  67.7237768  28.2486351   7.1636491  64.4364775  29.0278809
   6.6475539  63.6523232  28.8408738   8.0476439  64.1083492  29.1925329
   4.8247217  58.1805790  24.9874622   4.6272039  57.8720879  25.8717954
   5.4346923  58.9067429  25.1172552  12.8318552  68.7069738  28.1226563
  13.5621940  68.4455026  28.6834266  12.2225497  67.9698460  28.1628631
  10.9133849  66.8477601  28.7201014  10.1867013  66.7133566  28.1117506
  10.4981136  67.1554430  29.5257732   3.9599671  60.1715223  22.2449817
   3.3798340  60.8300027  21.8627870   3.6935604  59.3492567  21.8337235
   2.4103238  59.5720280  24.4471138   2.9103016  59.6836815  23.6385457
   3.0538845  59.2681333  25.0871946   2.7424549  62.3315313  21.3006166
   1.8550404  62.6164964  21.0826360   3.1578538  62.1709076  20.4533443
   6.0939085  62.3561834  25.0160505   6.8699475  62.8458286  25.2885122
   5.3687220  62.7819888  25.4732374   8.5311644  63.0689453  26.0734446
   9.1256135  62.8285189  25.3627754   8.6038228  62.3496584  26.7007982
   2.7165573  67.8469849  21.5156456   2.6600774  68.3038400  20.6764088
   3.2693915  67.0860533  21.3379299   6.5270379  63.6359581  22.3406575
   6.2707313  63.2356216  23.1714783   5.9023247  64.3503375  22.2156714
  10.8382717  66.3755654  24.8477867  10.2782275  66.4448843  25.6209429
  10.2326220  66.1996639  24.1277363   3.4500352  69.0374630  18.8108985
   3.3949156  68.8718902  17.8697429   2.8246408  69.7450663  18.9671175
  12.4238735  83.0512168  27.5407822  13.0617145  82.9318915  26.8371163
  12.3059578  83.9993012  27.5995775   9.2328441  83.0039596  27.4769347
   8.8946953  82.8880661  26.5889882  10.1018210  82.6030761  27.4570353
   9.7148224  84.1574448  33.4355553   9.7036865  83.7627246  32.5636056
   9.8768864  83.4240520  34.0289324   6.4355486  86.9411560  32.3834737
   6.1445352  87.8457190  32.2681403   7.0712470  86.9828087  33.0978806
   7.3611692  84.3188408  28.9736096   7.9575265  84.0944430  28.2593059
   7.4186664  83.5773154  29.5761544  11.9780004  80.7763622  24.6161031
  12.7643093  80.3583045  24.2651448  12.2418708  81.6809714  24.7842679
  17.3788431  80.7138855  25.5194009  18.1113603  80.1438072  25.7531839
  16.6227786  80.3260455  25.9600515   8.9964551  83.1366096  22.7157351
   8.6322758  82.6096717  23.4270273   9.8531666  82.7464565  22.5423837
  14.9013851  74.4260429  29.9788618  14.5697176  75.2955840  29.7549833
  14.3059465  74.1096713  30.6582648  11.3945371  86.6272975  29.3784530
  11.0946094  87.5298014  29.2700338  11.0496430  86.3605158  30.2305683
   4.8457852  83.0786772  25.4121235   3.9208349  82.9462986  25.6198927
   5.0942265  83.8580991  25.9091177  14.7942514  79.1455515  27.0581968
  13.8859392  79.0770924  26.7640729  14.7430110  79.6227460  27.8863793
   8.8683380  80.5645161  35.0016865   8.0916714  81.1239081  34.9919730
   9.5073943  81.0501944  35.5231735  16.6604161  77.3471954  28.8359842
  16.0178541  77.6404487  28.1899636  16.1559089  77.2324874  29.6413038
  14.3144325  81.0935127  19.5245701  15.2262181  81.3262514  19.3493398
  13.8053972  81.6772171  18.9620779   7.1229753  83.3730614  34.5634832
   7.8644437  83.9115658  34.2869656   6.4166738  83.9996903  34.7206384
  12.5985092  85.5159755  33.1606993  13.0068448  85.0742165  32.4161626
  11.8762354  84.9412382  33.4141186   8.9516162  80.4532361  30.5340550
   9.7977357  80.8771775  30.6775199   8.8914800  79.7965986  31.2279113
  12.9213907  86.0760945  26.9159282  12.2922769  86.2406659  26.2135350
  12.5339569  86.4902555  27.6870246  16.8003139  87.0115383  24.2703646
  16.1154177  87.3914284  23.7200679  16.8846988  87.6210710  25.0035594
  12.1015608  78.1136730  32.1921724  11.8576539  78.8678790  31.6556000
  12.3775538  78.4922077  33.0268971  14.0554070  84.6575342  30.8698990
  14.2670966  85.3007102  30.1933371  14.0083819  83.8237659  30.4020920
  11.6580299  77.2693163  27.7735562  10.7964778  77.5674416  28.0652299
  11.6842734  77.4863562  26.8416594   8.4741869  85.8135353  24.1809367
   8.9380214  86.0923056  23.3913990   8.2098667  84.9118798  23.9982458
   5.3665950  85.3606835  27.1189131   5.9367307  85.7894103  26.4806615
   5.9574062  85.0789420  27.8173316   5.8591116  80.5270262  35.3650142
   5.2289777  81.2086543  35.5985539   5.7527204  80.4153344  34.4203280
  15.1699898  87.5347298  29.0421347  15.9917342  87.1327485  28.7604029
  15.1662301  87.4315532  29.9937463   8.9356502  87.0831341  31.1982057
   9.0000934  87.5451748  32.0340229   8.2267426  86.4528706  31.3264367
  23.2605891  83.8786046  25.3906318  22.5069600  83.3093444  25.2350323
  23.3953433  83.8448711  26.3376953   5.1371859  74.8291028  37.7275393
   4.7438805  74.2757227  38.4023037   5.9537999  75.1401607  38.1181911
   8.0539820  76.2448907  35.3195650   8.7949533  76.8456060  35.2400112
   8.2857743  75.5026545  34.7613692   3.1981158  81.4305275  33.5973879
   3.0834673  80.5290532  33.8980978   2.3425676  81.6768971  33.2458696
  10.2772996  89.3723015  35.1961380   9.8336850  88.5859393  34.8782284
  10.9390209  89.5602165  34.5305271  12.3754234  89.6525815  33.2242781
  12.3572709  90.4734696  32.7323050  13.2974154  89.5279890  33.4492922
   8.8327288  87.1669944  34.0666289   9.3655625  86.4058232  33.8365597
   8.3041369  86.8743596  34.8090444  11.9996983  72.2730010  29.5959931
  11.6561252  73.1631652  29.5199042  12.3675946  72.0831668  28.7329516
   9.5494377  77.1088322  23.1617605   8.6935973  76.7195172  22.9823243
   9.9621328  77.1880283  22.3017390  11.0793523  74.6434665  27.5609164
  10.5758319  74.6064801  26.7476970  11.3724130  75.5527408  27.6205821
   7.3236409  74.7273395  26.5675346   8.1889406  74.5316204  26.2081236
   7.3913918  74.4983747  27.4944703  16.9381540  85.0170976  20.0385540
  16.1610983  84.6782135  19.5940702  17.6173021  85.0223599  19.3640505
  11.7533569  80.1365713  19.9292148  11.4483704  80.4511863  20.7802291
  12.7064011  80.2147133  19.9719481  15.1772847  84.4904957  26.6952148
  14.5196521  85.1804219  26.7832276  15.9813246  84.8801389  27.0386134
   4.9298728  76.9575603  23.9391713   5.5042480  76.7350785  23.2064906
   5.5169711  77.0264298  24.6920314  13.9878306  82.8449330  24.7456090
  14.5010187  83.4779322  25.2477799  14.6379529  82.2450525  24.3799450
   7.2321396  73.8316852  22.6666782   6.5785808  73.5165869  22.0423397
   7.1901870  73.2092592  23.3926605  10.4659136  80.3198785  26.9914430
   9.5481698  80.5413732  26.8336118  10.8819280  80.3945096  26.1326137
  11.2494184  81.7190201  22.1217110  11.9966003  82.2311598  21.8124232
  11.5185774  81.3974254  22.9821504  14.7540102  87.8255331  22.8735232
  14.3002429  86.9846241  22.9300423  14.1234068  88.4616730  23.2110012
  13.6973021  78.7547317  24.1035900  12.9595778  78.2424704  24.4346142
  13.9499795  78.3147699  23.2919177  13.1973041  89.6631828  23.8085050
  13.4896015  90.2236885  23.0897416  13.7071662  89.9560389  24.5638209
  13.7984649  71.5323569  24.6977669  14.1043525  70.6720933  24.4103584
  14.5237253  72.1241190  24.4976663   8.0705728  81.8277362  25.2053860
   8.1254338  80.8751199  25.1296337   7.2596930  81.9836802  25.6895158
   6.0098088  80.4454422  22.9644239   5.1965954  80.7448593  23.3709431
   6.5057082  80.0510111  23.6818721  11.6072300  80.9096247  31.7959133
  11.9621688  81.1367720  32.6553598  12.2544431  81.2414623  31.1736388
  17.3370037  84.0314683  22.5008462  17.1987935  84.2216279  21.5729651
  16.9806256  84.7934065  22.9576513   5.5012163  78.0172778  28.5805474
   6.1411542  77.8761537  27.8828437   4.6689694  77.7307291  28.2044076
  17.3639416  86.0991210  27.5119733  17.7975923  86.0066499  28.3602787
  18.0770997  86.0748710  26.8739749  11.0967311  89.6993304  29.0452834
  11.1504334  90.2684240  29.8130550  10.2282093  89.8695189  28.6806871
   3.9765705  79.4010860  30.5277285   4.6488758  79.1928222  29.8789934
   3.1495491  79.2032946  30.0882517  18.2254966  86.1414910  30.0452619
  18.4190856  87.0460721  30.2911894  18.1255584  85.6822329  30.8791204
   9.8791277  76.0272801  32.5442946   9.2319192  76.7262750  32.4507422
  10.6492292  76.4608945  32.9119194  13.2870075  86.2921653  35.6193499
  13.1355581  86.0632205  34.7023583  13.2774754  87.2492254  35.6324844
  10.0555411  83.8653566  30.6039766  10.9847471  84.0164725  30.4308733
   9.6346441  83.9537587  29.7488412   8.8543743  87.8904230  28.3738303
   8.7154829  87.5223015  29.2464241   8.0658339  88.4051870  28.2022261
  10.4048958  87.2685833  25.7627141  10.0698791  87.2286603  26.6584791
   9.9052904  86.6030549  25.2897551   4.3793202  82.6753463  31.2879722
   4.2413000  81.9433702  31.8891261   5.2898126  82.5862363  31.0063910
   7.0075503  82.3873422  30.7763402   7.7175121  81.7466614  30.7350020
   6.9644811  82.6386317  31.6989583  14.9962281  89.3240776  33.6969981
  14.9374828  88.6399996  33.0300564  15.3981800  90.0659766  33.2450607
   5.7204437  79.3738640  32.5959041   5.1841794  78.9229379  33.2480638
   5.1321145  79.5084549  31.8529506  14.9979689  87.2880359  31.9283961
  14.1106467  86.9506281  32.0510360  15.5678240  86.5563391  32.1652726
   1.4543558  78.5094648  29.6812036   1.3701747  77.9020317  28.9462446
   0.6326264  79.0003666  29.6821532  11.6267272  76.9948211  25.0482231
  12.1235971  76.2418174  24.7283301  10.8554253  77.0312528  24.4825440
  19.4797029  82.6988577  26.6900522  19.4686905  83.5813292  26.3194456
  18.6114409  82.3460128  26.4955060  10.9879526  91.8468646  31.0503363
  11.7007498  92.4816111  30.9779264  10.4969554  91.9432512  30.2343365
  12.7097052  85.7519899  22.6220654  11.7753331  85.8721361  22.4525359
  12.8873721  84.8492365  22.3580664   8.2102241  79.1365594  24.7753916
   7.8400028  78.5836635  25.4634821   8.7061333  78.5323728  24.2228916
  16.0969604  81.5937218  23.1570689  16.5630056  82.4265209  23.0830991
  16.5477104  81.1282199  23.8615947   6.0391439  89.5963089  31.8708934
   6.7400899  90.2299572  32.0238328   5.5686554  89.9377821  31.1104573
  14.1645835  87.9381039  20.1556841  14.4405679  87.8237634  21.0650715
  13.2950334  87.5398524  20.1169014  14.0686267  73.9617805  27.1961590
  13.1549346  74.1922032  27.3643797  14.4979368  74.0456249  28.0475622
  13.8392725  82.1507697  29.6961484  13.1864175  82.3983604  29.0413937
  14.2173105  81.3371835  29.3623961   9.8880298  82.8927508  36.1827521
   9.2120935  82.7921637  36.8529896  10.7107932  82.7366722  36.6463518
   3.6067574  76.5469585  31.0207022   3.6708901  77.4084416  30.6084419
   3.5434694  75.9343587  30.2879380   3.0819847  78.6192718  34.6680056
   3.7091886  78.2369795  35.2817580   2.2247766  78.4006920  35.0335748
  13.4813955  89.0255693  36.2733791  14.0253859  89.6385651  35.7788746
  12.9000800  89.5835271  36.7900804  11.7671468  92.1476411  27.4048819
  11.6422608  91.3466151  26.8959765  12.4250559  92.6422604  26.9162789
   3.3879636  78.5025143  26.5825959   2.6666222  79.1161111  26.4433433
   4.1772892  79.0382908  26.5042605  13.8306377  89.9485431  29.0328369
  12.8836712  89.8290782  28.9606696  14.1789150  89.0607929  29.1154631
   6.1905950  75.8379570  32.8566611   6.7140352  76.0841866  33.6192920
   5.9718283  76.6699605  32.4369748  10.8352810  89.7438147  25.2332721
  10.6877772  88.8154855  25.4140291  11.6606303  89.7658238  24.7489797
  14.4386932  90.5666706  26.3197594  15.3633479  90.3609567  26.1822045
  14.2702235  90.3183107  27.2286936   7.3958495  76.7793265  30.5416282
   7.0555315  75.9801078  30.9436962   6.6897501  77.0794976  29.9693115
   8.0474967  73.8642577  28.9943605   8.8701036  73.3903056  28.8722495
   8.2913030  74.6433061  29.4942291  10.8314324  77.5975985  20.2264839
  11.0477939  78.4800623  19.9253667  10.3508391  77.2062198  19.4970481
   5.5713546  80.5561698  26.8035583   5.4258126  80.8702001  27.6959865
   5.0938749  81.1746598  26.2506482   7.4309929  77.5464246  26.8516473
   7.4171497  76.6505339  26.5148771   8.1482357  77.5534910  27.4854759
   9.2836059  77.9801586  28.8969600   9.0253837  78.9018657  28.8953931
   8.7521100  77.5832021  29.5870064  14.2282248  91.0852373  21.6759686
  14.4019126  90.5198796  20.9233538  14.7211139  91.8853268  21.4939176
   6.8346824  76.4278626  22.1204043   6.9562736  75.4995272  22.3194930
   6.5448867  76.4417312  21.2082358   9.7038015  74.1133537  25.2570763
   9.7259712  74.1772870  24.3022742  10.1206074  73.2738045  25.4511269
  20.0821639  83.8488796  23.2949985  20.5252785  83.0996121  22.8969109
  19.2048149  83.8398933  22.9123717  17.1148844  87.8518843  20.3043915
  17.6400168  88.1906116  19.5793235  17.0271196  86.9165859  20.1207049
   8.7768892  91.7652917  32.4333791   9.0856019  91.5202064  33.3056491
   9.5744374  91.9699555  31.9452662   6.3187904  77.9410624  36.3293976
   6.3676059  78.8172746  35.9471745   6.8610418  77.3988017  35.7565619
  16.8042750  88.4851747  35.6095113  16.0138293  88.4675886  35.0699612
  16.5676104  89.0240041  36.3644149  16.9240625  85.3344213  32.9227841
  16.9738630  85.1694221  33.8643364  16.8154548  84.4671472  32.5325722
  14.2144387  81.3175141  34.2387148  15.1154250  81.1781606  33.9471146
  14.2892362  81.4829596  35.1785325   8.5487192  78.6941996  33.0840334
   7.6790502  78.9875562  32.8122923   8.7846673  79.2782441  33.8047598
  18.4258822  87.7541155  33.1669863  18.1343630  88.1171135  34.0033324
  17.8130953  87.0408163  32.9883195  19.6254504  85.3194035  25.6872433
  20.4601395  85.7583839  25.8509993  19.7613633  84.8432688  24.8680679
  16.6746010  82.8773769  31.6349921  17.1500131  83.0701416  30.8268772
  15.7511575  82.9332955  31.3893304  11.2526226  74.9121613  30.6005755
  11.7708170  75.6482640  30.2752243  10.8981359  75.2185606  31.4352514
  11.5038820  71.3321895  26.1206651  11.7840574  70.6645085  26.7467078
  12.2889427  71.5250991  25.6081315  15.3747679  79.7539529  29.8678226
  16.3265102  79.8537627  29.8890450  15.2051129  78.9617798  30.3776311
  13.3962058  76.8395113  30.0537627  12.8011990  77.1200125  29.3584116
  13.1111755  77.3289014  30.8254368  17.8535757  82.9745649  28.9820526
  17.8212077  82.0361650  29.1680210  18.4636380  83.0529686  28.2486351
  18.0030245  79.7656693  29.0278809  17.4869294  78.9815149  28.8408738
  18.8870194  79.4375409  29.1925329  15.6640972  73.5097708  24.9874622
  15.4665793  73.2012796  25.8717954  16.2740678  74.2359347  25.1172552
  23.6712306  84.0361656  28.1226563  24.4015695  83.7746944  28.6834266
  23.0619252  83.2990378  28.1628631  21.7527604  82.1769519  28.7201014
  21.0260767  82.0425484  28.1117506  21.3374890  82.4846347  29.5257732
   9.5757780  85.8959448  36.4848387  10.4960789  86.0738047  36.6788433
   9.5407363  84.9515494  36.3328086   2.5719853  83.8060483  29.1271168
   2.7905862  84.7377591  29.1459202   2.9845626  83.4468457  29.9125972
   9.4924070  74.3128568  21.1146857   8.6824799  73.9675653  21.4902103
  10.1808487  74.0036112  21.7034468  11.4214619  73.3906615  22.7371153
  11.9745657  73.8102068  23.3961176  11.6584705  72.4642363  22.7794109
   7.4447718  79.3793689  38.5173917   7.3444445  80.3288046  38.4486008
   7.2269260  79.0511928  37.6449987  14.7993426  75.5007140  22.2449817
  14.2192095  76.1591944  21.8627870  14.5329358  74.6784485  21.8337235
  13.2496992  74.9012198  24.4471138  13.7496770  75.0128732  23.6385457
  13.8932600  74.5973251  25.0871946   7.3078988  82.8090828  37.3338979
   6.8246070  83.6091188  37.5402868   7.3939927  82.8198772  36.3806423
   3.2352325  86.6995362  29.3707413   4.1895579  86.6679305  29.3037344
   3.0364849  86.2385986  30.1857638   3.8251707  85.2696478  31.9378210
   4.6444596  85.7640557  31.9613047   4.0988515  84.3528446  31.9095778
  13.5818304  77.6607231  21.3006166  12.6944159  77.9456881  21.0826360
  13.9972293  77.5000994  20.4533443  16.9332840  77.6853752  25.0160505
  17.7093230  78.1750204  25.2885122  16.2080974  78.1111806  25.4732374
  19.3705398  78.3981371  26.0734446  19.9649889  78.1577107  25.3627754
  19.4431982  77.6788501  26.7007982  13.5559327  83.1761767  21.5156456
  13.4994529  83.6330318  20.6764088  14.1087670  82.4152451  21.3379299
  17.3664133  78.9651498  22.3406575  17.1101068  78.5648134  23.1714783
  16.7417001  79.6795292  22.2156714  21.6776471  81.7047572  24.8477867
  21.1176029  81.7740761  25.6209429  21.0719975  81.5288556  24.1277363
  14.2894107  84.3666548  18.8108985  14.2342911  84.2010819  17.8697429
  13.6640162  85.0742581  18.9671175  11.6040014  86.6715460  38.1362548
  12.4731174  86.8456112  37.7749183  11.1246765  87.4909876  38.0138277
   7.5990232  73.8674657  18.3894303   7.5868902  74.8116497  18.5462574
   8.4913654  73.6844802  18.0953765  11.4142352  70.4617433  22.6440240
  10.6474747  69.9075920  22.7896923  11.8253057  70.5339302  23.5054392
   3.4184113  76.7502229  36.7345421   4.2815574  76.3939034  36.9448746
   2.8449523  76.4116124  37.4220826  22.8173758  96.1055539  24.6161031
  23.6036847  95.6874963  24.2651448  23.0812462  97.0101632  24.7842679
  28.2182185  96.0430773  25.5194009  28.9507357  95.4729989  25.7531839
  27.4621541  95.6552373  25.9600515  25.7407606  89.7552347  29.9788618
  25.4090930  90.6247758  29.7549833  25.1453219  89.4388631  30.6582648
  25.6336269  94.4747433  27.0581968  24.7253146  94.4062841  26.7640729
  25.5823865  94.9519378  27.8863793  27.4997915  92.6763871  28.8359842
  26.8572296  92.9696404  28.1899636  26.9952844  92.5616792  29.6413038
  25.1538079  96.4227044  19.5245701  26.0655935  96.6554431  19.3493398
  24.6447726  97.0064089  18.9620779  19.7909917  95.7824279  30.5340550
  20.6371112  96.2063693  30.6775199  19.7308554  95.1257903  31.2279113
  22.9409362  93.4428647  32.1921724  22.6970294  94.1970708  31.6556000
  23.2169293  93.8213995  33.0268971  22.4974054  92.5985080  27.7735562
  21.6358533  92.8966334  28.0652299  22.5236488  92.8155479  26.8416594
  34.0999646  99.2077964  25.3906318  33.3463354  98.6385362  25.2350323
  34.2347187  99.1740628  26.3376953  15.9765614  90.1582946  37.7275393
  15.5832559  89.6049144  38.4023037  16.7931754  90.4693524  38.1181911
  18.8933574  91.5740825  35.3195650  19.6343288  92.1747978  35.2400112
  19.1251497  90.8318463  34.7613692  22.8390737  87.6021928  29.5959931
  22.4955007  88.4923570  29.5199042  23.2069700  87.4123586  28.7329516
  20.3888131  92.4380240  23.1617605  19.5329728  92.0487090  22.9823243
  20.8015083  92.5172201  22.3017390  21.9187278  89.9726583  27.5609164
  21.4152073  89.9356718  26.7476970  22.2117885  90.8819326  27.6205821
  18.1630164  90.0565313  26.5675346  19.0283160  89.8608121  26.2081236
  18.2307673  89.8275665  27.4944703  22.5927323  95.4657631  19.9292148
  22.2877459  95.7803780  20.7802291  23.5457765  95.5439051  19.9719481
  15.7692483  92.2867521  23.9391713  16.3436235  92.0642702  23.2064906
  16.3563465  92.3556215  24.6920314  18.0715150  89.1608770  22.6666782
  17.4179563  88.8457787  22.0423397  18.0295625  88.5384510  23.3926605
  21.3052891  95.6490703  26.9914430  20.3875452  95.8705650  26.8336118
  21.7213034  95.7237014  26.1326137  24.5366776  94.0839235  24.1035900
  23.7989533  93.5716621  24.4346142  24.7893549  93.6439617  23.2919177
  24.6378403  86.8615487  24.6977669  24.9437280  86.0012850  24.4103584
  25.3631008  87.4533107  24.4976663  22.4466054  96.2388164  31.7959133
  22.8015442  96.4659637  32.6553598  23.0938186  96.5706541  31.1736388
  16.3405918  93.3464695  28.5805474  16.9805297  93.2053455  27.8828437
  15.5083448  93.0599209  28.2044076  20.7185031  91.3564718  32.5442946
  20.0712946  92.0554668  32.4507422  21.4886047  91.7900862  32.9119194
  16.5598191  94.7030558  32.5959041  16.0235548  94.2521296  33.2480638
  15.9714900  94.8376467  31.8529506  22.4661026  92.3240129  25.0482231
  22.9629726  91.5710091  24.7283301  21.6948008  92.3604446  24.4825440
  30.3190784  98.0280495  26.6900522  30.3080660  98.9105210  26.3194456
  29.4508163  97.6752045  26.4955060  19.0495995  94.4657512  24.7753916
  18.6793783  93.9128552  25.4634821  19.5455087  93.8615645  24.2228916
  26.9363358  96.9229135  23.1570689  27.4023811  97.7557127  23.0830991
  27.3870859  96.4574117  23.8615947  24.9080021  89.2909722  27.1961590
  23.9943101  89.5213949  27.3643797  25.3373123  89.3748167  28.0475622
  14.4461329  91.8761503  31.0207022  14.5102655  92.7376334  30.6084419
  14.3828449  91.2635504  30.2879380  13.9213601  93.9484635  34.6680056
  14.5485640  93.5661713  35.2817580  13.0641520  93.7298837  35.0335748
  17.0299704  91.1671487  32.8566611  17.5534106  91.4133784  33.6192920
  16.8112038  91.9991522  32.4369748  18.2352250  92.1085183  30.5416282
  17.8949070  91.3092996  30.9436962  17.5291256  92.4086893  29.9693115
  18.8868721  89.1934495  28.9943605  19.7094791  88.7194973  28.8722495
  19.1306785  89.9724979  29.4942291  21.6708079  92.9267902  20.2264839
  21.8871693  93.8092540  19.9253667  21.1902146  92.5354116  19.4970481
  18.2703683  92.8756164  26.8516473  18.2565252  91.9797257  26.5148771
  18.9876111  92.8826827  27.4854759  20.1229814  93.3093504  28.8969600
  19.8647592  94.2310574  28.8953931  19.5914854  92.9123938  29.5870064
  17.6740579  91.7570544  22.1204043  17.7956490  90.8287190  22.3194930
  17.3842621  91.7709230  21.2082358  20.5431769  89.4425454  25.2570763
  20.5653466  89.5064787  24.3022742  20.9599828  88.6029963  25.4511269
  30.9215394  99.1780714  23.2949985  31.3646540  98.4288039  22.8969109
  30.0441904  99.1690850  22.9123717  17.1581658  93.2702541  36.3293976
  17.2069814  94.1464664  35.9471745  17.7004173  92.7279934  35.7565619
  25.0538142  96.6467059  34.2387148  25.9548004  96.5073524  33.9471146
  25.1286116  96.8121514  35.1785325  19.3880947  94.0233914  33.0840334
  18.5184256  94.3167480  32.8122923  19.6240427  94.6074359  33.8047598
  27.5139764  98.2065687  31.6349921  27.9893886  98.3993333  30.8268772
  26.5905330  98.2624873  31.3893304  22.0919981  90.2413531  30.6005755
  22.6101925  90.9774558  30.2752243  21.7375114  90.5477524  31.4352514
  22.3432575  86.6613813  26.1206651  22.6234329  85.9937002  26.7467078
  23.1283182  86.8542909  25.6081315  26.2141433  95.0831447  29.8678226
  27.1658856  95.1829545  29.8890450  26.0444884  94.2909716  30.3776311
  24.2355813  92.1687030  30.0537627  23.6405745  92.4492043  29.3584116
  23.9505509  92.6580931  30.8254368  28.6929511  98.3037567  28.9820526
  28.6605831  97.3653568  29.1680210  29.3030135  98.3821604  28.2486351
  28.8424000  95.0948610  29.0278809  28.3263048  94.3107067  28.8408738
  29.7263948  94.7667327  29.1925329  26.5034726  88.8389626  24.9874622
  26.3059548  88.5304714  25.8717954  27.1134432  89.5651265  25.1172552
  34.5106061  99.3653574  28.1226563  35.2409449  99.1038862  28.6834266
  33.9013006  98.6282296  28.1628631  32.5921358  97.5061436  28.7201014
  31.8654522  97.3717401  28.1117506  32.1768645  97.8138265  29.5257732
  20.3317825  89.6420486  21.1146857  19.5218553  89.2967571  21.4902103
  21.0202242  89.3328030  21.7034468  22.2608373  88.7198533  22.7371153
  22.8139412  89.1393986  23.3961176  22.4978459  87.7934281  22.7794109
  25.6387180  90.8299058  22.2449817  25.0585849  91.4883862  21.8627870
  25.3723113  90.0076402  21.8337235  24.0890747  90.2304116  24.4471138
  24.5890525  90.3420650  23.6385457  24.7326354  89.9265168  25.0871946
  24.4212058  92.9899148  21.3006166  23.5337913  93.2748799  21.0826360
  24.8366047  92.8292912  20.4533443  27.7726594  93.0145669  25.0160505
  28.5486984  93.5042122  25.2885122  27.0474728  93.4403723  25.4732374
  30.2099153  93.7273288  26.0734446  30.8043644  93.4869024  25.3627754
  30.2825737  93.0080419  26.7007982  28.2057888  94.2943416  22.3406575
  27.9494822  93.8940052  23.1714783  27.5810756  95.0087210  22.2156714
  32.5170226  97.0339489  24.8477867  31.9569784  97.1032679  25.6209429
  31.9113729  96.8580474  24.1277363  18.4383987  89.1966574  18.3894303
  18.4262657  90.1408414  18.5462574  19.3307409  89.0136720  18.0953765
  22.2536106  85.7909351  22.6440240  21.4868502  85.2367838  22.7896923
  22.6646811  85.8631220  23.5054392  14.2577867  92.0794147  36.7345421
  15.1209329  91.7230952  36.9448746  13.6843278  91.7408042  37.4220826
   1.7591339  47.1929960  19.8852300   2.1674695  46.7512370  19.1406932
   1.0368600  46.6182587  20.1386493   2.0820154  47.7531150  13.6404589
   1.4529016  47.9176864  12.9380657   1.6945816  48.1672760  14.4115553
   5.9609385  48.6885588  10.9948953   5.2760424  49.0684489  10.4445986
   6.0453235  49.2980915  11.7280900   1.2621854  39.7906935  18.9167031
   1.0182786  40.5448995  18.3801306   1.5381785  40.1692282  19.7514278
   3.2160317  46.3345547  17.5944296   3.4277212  46.9777307  16.9178677
   3.1690065  45.5007864  17.1266226   4.3306145  49.2117502  15.7666654
   5.1523589  48.8097690  15.4849335   4.3268548  49.1085737  16.7182769
  12.4212138  45.5556251  12.1151625  11.6675846  44.9863649  11.9595629
  12.5559679  45.5218915  13.0622260   1.5360481  51.3296020  19.9488088
   1.5178956  52.1504901  19.4568357   2.4580401  51.2050095  20.1738229
   4.3379093  46.1675162  13.4197454   3.6802768  46.8574424  13.5077583
   5.1419493  46.5571594  13.7631441   2.3579288  51.3402033  10.5330357
   2.6502262  51.9007090   9.8142723   2.8677908  51.6330594  11.2883516
   0.7678547  42.5866452  18.5204439   1.1227934  42.8137925  19.3798905
   1.4150678  42.9184828  17.8981695   6.5245663  47.7761414  14.2365040
   6.9582170  47.6836704  15.0848094   7.2377244  47.7518915  13.5985056
   7.3861213  47.8185115  16.7697925   7.5797103  48.7230926  17.0157200
   7.2861831  47.3592534  17.6036510   2.4476321  47.9691858  22.3438806
   2.2961828  47.7402410  21.4268890   2.4381001  48.9262459  22.3570151
   4.1568528  51.0010980  20.4215288   4.0981074  50.3170201  19.7545871
   4.5588047  51.7429970  19.9695914   4.1585935  48.9650564  18.6529267
   3.2712714  48.6276486  18.7755666   4.7284486  48.2333596  18.8898033
   8.6403276  44.3758782  13.4145829   8.6293152  45.2583497  13.0439762
   7.7720655  44.0230333  13.2200366   2.9998972  43.8277902  16.4206791
   2.3470422  44.0753809  15.7659243   3.3779352  43.0142040  16.0869268
   2.6420202  50.7025898  22.9979098   3.1860106  51.3155856  22.5034053
   2.0607047  51.2605476  23.5146111   0.9277715  53.8246616  14.1294126
   0.8028854  53.0236356  13.6205071   1.5856806  54.3192809  13.6408096
   2.9912623  51.6255636  15.7573676   2.0442959  51.5060987  15.6852003
   3.3395397  50.7378134  15.8399937   3.5993179  52.2436911  13.0442901
   4.5239726  52.0379772  12.9067352   3.4308482  51.9953312  13.9532242
   5.9648996  50.1621952  22.3340419   5.1744540  50.1446091  21.7944919
   5.7282351  50.7010245  23.0889456   6.0846871  47.0114418  19.6473148
   6.1344876  46.8464426  20.5888671   5.9760795  46.1441677  19.2571029
   3.3750634  42.9945346  20.9632455   4.2760497  42.8551811  20.6716452
   3.4498608  43.1599801  21.9030632   7.5865068  49.4311360  19.8915169
   7.2949877  49.7941340  20.7278630   6.9737200  48.7178368  19.7128501
   8.7860751  46.9964239  12.4117740   9.6207642  47.4354044  12.5755300
   8.9219879  46.5202893  11.5925985   5.8352257  44.5543974  18.3595227
   6.3106378  44.7471621  17.5514079   4.9117822  44.6103160  18.1138611
   4.5353926  41.4309734  16.5923533   5.4871348  41.5307832  16.6135757
   4.3657376  40.6388003  17.1021617   7.0142003  44.6515854  15.7065833
   6.9818323  43.7131855  15.8925516   7.6242627  44.7299891  14.9731657
   7.1636492  41.4426897  15.7524116   6.6475540  40.6585354  15.5654045
   8.0476440  41.1145614  15.9170635  12.8318553  45.7131861  14.8471869
  13.5621942  45.4517149  15.4079573  12.2225499  44.9760583  14.8873937
  10.9133850  43.8539723  15.4446321  10.1867014  43.7195688  14.8362812
  10.4981137  44.1616552  16.2503039  12.4238736  60.0574290  14.2653129
  13.0617146  59.9381038  13.5616469  12.3059579  61.0055134  14.3241081
   9.2328443  60.0101719  14.2014654   8.8946954  59.8942783  13.3135189
  10.1018211  59.6092884  14.1815660   9.7148226  61.1636570  20.1600859
   9.7036866  60.7689369  19.2881363   9.8768865  60.4302643  20.7534631
   6.4355487  63.9473682  19.1080043   6.1445353  64.8519313  18.9926710
   7.0712471  63.9890210  19.8224113   7.3611694  61.3250531  15.6981403
   7.9575266  61.1006553  14.9838366   7.4186665  60.5835276  16.3006851
  11.9780005  57.7825744  11.3406337  12.7643094  57.3645167  10.9896754
  12.2418709  58.6871837  11.5087986  17.3788432  57.7200978  12.2439316
  18.1113604  57.1500194  12.4777145  16.6227788  57.3322578  12.6845821
   8.9964552  60.1428219   9.4402658   8.6322759  59.6158840  10.1515580
   9.8531668  59.7526688   9.2669144  14.9013852  51.4322552  16.7033924
  14.5697177  52.3017963  16.4795139  14.3059466  51.1158836  17.3827955
  11.3945372  63.6335098  16.1029837  11.0946095  64.5360136  15.9945644
  11.0496431  63.3667281  16.9550990   4.8457853  60.0848894  12.1366541
   3.9208350  59.9525109  12.3444233   5.0942267  60.8643114  12.6336484
  14.7942516  56.1517638  13.7827274  13.8859393  56.0833046  13.4886035
  14.7430112  56.6289583  14.6109100   8.8683381  57.5707283  21.7262172
   8.0916716  58.1301204  21.7165036   9.5073945  58.0564066  22.2477042
  16.6604162  54.3534076  15.5605148  16.0178542  54.6466609  14.9144943
  16.1559091  54.2386997  16.3658345  14.3144326  58.0997249   6.2491008
  15.2262182  58.3324636   6.0738705  13.8053973  58.6834294   5.6866086
   7.1229754  60.3792737  21.2880139   7.8644438  60.9177781  21.0114962
   6.4166739  61.0059026  21.4451690  12.5985093  62.5221877  19.8852300
  13.0068449  62.0804288  19.1406932  11.8762355  61.9474505  20.1386493
   8.9516163  57.4594484  17.2585857   9.7977359  57.8833898  17.4020506
   8.8914801  56.8028108  17.9524420  12.9213908  63.0823068  13.6404589
  12.2922771  63.2468782  12.9380657  12.5339570  63.4964677  14.4115553
  16.8003140  64.0177506  10.9948953  16.1154178  64.3976407  10.4445986
  16.8846989  64.6272832  11.7280900  12.1015609  55.1198852  18.9167031
  11.8576541  55.8740913  18.3801306  12.3775539  55.4984200  19.7514278
  14.0554072  61.6637465  17.5944296  14.2670967  62.3069225  16.9178677
  14.0083820  60.8299781  17.1266226  11.6580301  54.2755285  14.4980868
  10.7964780  54.5736539  14.7897606  11.6842735  54.4925684  13.5661901
   8.4741870  62.8197476  10.9054674   8.9380215  63.0985179  10.1159297
   8.2098668  61.9180921  10.7227765   5.3665951  62.3668957  13.8434437
   5.9367308  62.7956226  13.2051922   5.9574063  62.0851542  14.5418623
   5.8591118  57.5332385  22.0895449   5.2289778  58.2148666  22.3230845
   5.7527205  57.4215467  21.1448587  15.1699900  64.5409420  15.7666654
  15.9917343  64.1389607  15.4849335  15.1662302  64.4377654  16.7182769
   8.9356503  64.0893463  17.9227364   9.0000935  64.5513871  18.7585536
   8.2267427  63.4590828  18.0509674  23.2605893  60.8848169  12.1151625
  22.5069601  60.3155567  11.9595629  23.3953434  60.8510833  13.0622260
   5.1371860  51.8353151  24.4520700   4.7438806  51.2819349  25.1268344
   5.9538001  52.1463729  24.8427217   8.0539821  53.2511030  22.0440956
   8.7949535  53.8518183  21.9645419   8.2857744  52.5088668  21.4858999
   3.1981159  58.4367397  20.3219186   3.0834674  57.5352654  20.6226285
   2.3425677  58.6831094  19.9704002  10.2772997  66.3785137  21.9206686
   9.8336851  65.5921516  21.6027591  10.9390211  66.5664288  21.2550577
  12.3754235  66.6587937  19.9488088  12.3572710  67.4796818  19.4568357
  13.2974155  66.5342013  20.1738229   8.8327289  64.1732067  20.7911596
   9.3655626  63.4120355  20.5610904   8.3041370  63.8805719  21.5335751
  11.9996984  49.2792133  16.3205238  11.6561254  50.1693774  16.2444348
  12.3675947  49.0893790  15.4574823   9.5494378  54.1150445   9.8862911
   8.6935974  53.7257295   9.7068550   9.9621330  54.1942405   9.0262697
  11.0793525  51.6496788  14.2854471  10.5758320  51.6126923  13.4722276
  11.3724131  52.5589531  14.3451128   7.3236410  51.7335518  13.2920653
   8.1889407  51.5378326  12.9326542   7.3913919  51.5045869  14.2190010
  16.9381541  62.0233099   6.7630846  16.1610984  61.6844258   6.3186009
  17.6173022  62.0285722   6.0885812  11.7533570  57.1427836   6.6537454
  11.4483706  57.4573985   7.5047597  12.7064012  57.2209256   6.6964787
  15.1772848  61.4967080  13.4197454  14.5196522  62.1866341  13.5077583
  15.9813247  61.8863512  13.7631441   4.9298730  53.9637726  10.6637020
   5.5042481  53.7412907   9.9310213   5.5169712  54.0326420  11.4165621
  13.9878307  59.8511453  11.4701396  14.5010189  60.4841444  11.9723106
  14.6379531  59.2512648  11.1044756  10.4659138  57.3260908  13.7159737
   9.5481699  57.5475855  13.5581425  10.8819281  57.4007219  12.8571444
  11.2494185  58.7252324   8.8462417  11.9966004  59.2373721   8.5369539
  11.5185775  58.4036376   9.7066811  14.7540103  64.8317454   9.5980539
  14.3002430  63.9908364   9.6545729  14.1234070  65.4678852   9.9355319
  13.6973023  55.7609440  10.8281206  12.9595779  55.2486826  11.1591449
  13.9499796  55.3209822  10.0164483  13.1973042  66.6693951  10.5330357
  13.4896017  67.2299008   9.8142723  13.7071663  66.9622512  11.2883516
  13.7984650  48.5385692  11.4222976  14.1043527  47.6783055  11.1348891
  14.5237255  49.1303312  11.2221969   8.0705730  58.8339485  11.9299167
   8.1254339  57.8813321  11.8541643   7.2596932  58.9898924  12.4140465
   6.0098090  57.4516545   9.6889545   5.1965955  57.7510715  10.0954738
   6.5057084  57.0572234  10.4064028  11.6072301  57.9158369  18.5204439
  11.9621689  58.1429842  19.3798905  12.2544432  58.2476746  17.8981695
  17.3370038  61.0376805   9.2253768  17.1987937  61.2278401   8.2974958
  16.9806257  61.7996188   9.6821820   5.5012164  55.0234900  15.3050780
   6.1411544  54.8823659  14.6073744   4.6689695  54.7369414  14.9289382
  17.3639418  63.1053332  14.2365040  17.7975924  63.0128621  15.0848094
  18.0770998  63.0810833  13.5985056  11.0967313  66.7055426  15.7698141
  11.1504335  67.2746363  16.5375856  10.2282094  66.8757311  15.4052178
   3.9765706  56.4072982  17.2522592   4.6488759  56.1990345  16.6035241
   3.1495493  56.2095068  16.8127824  18.2254967  63.1477033  16.7697925
  18.4190857  64.0522843  17.0157200  18.1255585  62.6884452  17.6036510
   9.8791278  53.0334923  19.2688253   9.2319193  53.7324873  19.1752729
  10.6492293  53.4671067  19.6364501  13.2870076  63.2983776  22.3438806
  13.1355582  63.0694327  21.4268890  13.2774755  64.2554377  22.3570151
  10.0555412  60.8715688  17.3285072  10.9847472  61.0226848  17.1554040
   9.6346442  60.9599709  16.4733719   8.8543744  64.8966353  15.0983610
   8.7154830  64.5285137  15.9709548   8.0658340  65.4113992  14.9267568
  10.4048959  64.2747955  12.4872448  10.0698792  64.2348725  13.3830098
   9.9052905  63.6092671  12.0142858   4.3793203  59.6815585  18.0125029
   4.2413001  58.9495824  18.6136568   5.2898127  59.5924486  17.7309217
   7.0075504  59.3935545  17.5008709   7.7175122  58.7528737  17.4595327
   6.9644812  59.6448440  18.4234889  14.9962283  66.3302898  20.4215288
  14.9374829  65.6462118  19.7545871  15.3981801  67.0721888  19.9695914
   5.7204438  56.3800763  19.3204348   5.1841795  55.9291501  19.9725944
   5.1321146  56.5146671  18.5774812  14.9979690  64.2942482  18.6529267
  14.1106469  63.9568404  18.7755666  15.5678241  63.5625513  18.8898033
   1.4543559  55.5156770  16.4057343   1.3701748  54.9082440  15.6707752
   0.6326266  56.0065789  16.4066839   8.5280843  68.9543934  15.6190511
   8.4551015  69.7598906  16.1309815   8.0858236  69.1535900  14.7938532
  11.6267273  54.0010334  11.7727538  12.1235973  53.2480296  11.4528608
  10.8554255  54.0374651  11.2070747  19.4797030  59.7050699  13.4145829
  19.4686907  60.5875415  13.0439762  18.6114410  59.3522250  13.2200366
  10.9879527  68.8530768  17.7748669  11.7007499  69.4878233  17.7024571
  10.4969555  68.9494634  16.9588671  12.7097054  62.7582021   9.3465961
  11.7753332  62.8783484   9.1770665  12.8873722  61.8554488   9.0825971
   8.2102242  56.1427717  11.4999222   7.8400029  55.5898757  12.1880128
   8.7061334  55.5385850  10.9474222  16.0969605  58.5999340   9.8815995
  16.5630057  59.4327332   9.8076298  16.5477106  58.1344322  10.5861254
   6.0391440  66.6025212  18.5954240   6.7400900  67.2361695  18.7483634
   5.5686555  66.9439943  17.8349879  14.1645836  64.9443162   6.8802147
  14.4405680  64.8299756   7.7896021  13.2950335  64.5460647   6.8414320
  14.0686268  50.9679927  13.9206896  13.1549348  51.1984154  14.0889103
  14.4979369  51.0518371  14.7720929  13.8392726  59.1569819  16.4206791
  13.1864177  59.4045727  15.7659243  14.2173106  58.3433958  16.0869268
   9.8880299  59.8989630  22.9072828   9.2120936  59.7983760  23.5775203
  10.7107933  59.7428844  23.3708825   8.6303082  71.2056558  17.1430444
   9.1821390  71.3688179  17.9079529   8.9709276  71.7960996  16.4710468
   3.6067575  53.5531708  17.7452328   3.6708902  54.4146539  17.3329726
   3.5434696  52.9405709  17.0124687   3.0819848  55.6254840  21.3925363
   3.7091887  55.2431918  22.0062887   2.2247767  55.4069042  21.7581055
  13.4813957  66.0317815  22.9979098  14.0253861  66.6447774  22.5034053
  12.9000801  66.5897394  23.5146111  11.7671469  69.1538533  14.1294126
  11.6422609  68.3528273  13.6205071  12.4250561  69.6484727  13.6408096
   3.3879638  55.5087266  13.3071266   2.6666223  56.1223234  13.1678739
   4.1772893  56.0445031  13.2287912  13.8306378  66.9547553  15.7573676
  12.8836713  66.8352905  15.6852003  14.1789151  66.0670052  15.8399937
   6.1905951  52.8441692  19.5811918   6.7140353  53.0903989  20.3438227
   5.9718285  53.6761727  19.1615055  10.8352811  66.7500270  11.9578028
  10.6877774  65.8216977  12.1385598  11.6606305  66.7720360  11.4735103
  14.4386933  67.5728828  13.0442901  15.3633480  67.3671690  12.9067352
  14.2702236  67.3245230  13.9532242   7.3958496  53.7855388  17.2661588
   7.0555317  52.9863201  17.6682268   6.6897503  54.0857098  16.6938421
   8.0474968  50.8704700  15.7188911   8.8701037  50.3965178  15.5967802
   8.2913032  51.6495184  16.2187598  10.8314325  54.6038107   6.9510145
  11.0477940  55.4862745   6.6498973  10.3508393  54.2124321   6.2215787
   5.5713547  57.5623821  13.5280890   5.4258128  57.8764124  14.4205171
   5.0938751  58.1808721  12.9751789   7.4309930  54.5526369  13.5761779
   7.4171499  53.6567462  13.2394077   8.1482358  54.5597032  14.2100065
   9.2836060  54.9863709  15.6214907   9.0253838  55.9080779  15.6199237
   8.7521101  54.5894143  16.3115371  14.2282249  68.0914496   8.4004992
  14.4019127  67.5260918   7.6478845  14.7211140  68.8915391   8.2184482
   6.8346826  53.4340749   8.8449350   6.9562737  52.5057395   9.0440237
   6.5448868  53.4479435   7.9327665   9.7038016  51.1195659  11.9816069
   9.7259713  51.1834992  11.0268049  10.1206075  50.2800168  12.1756576
  20.0821640  60.8550919  10.0195292  20.5252786  60.1058244   9.6214415
  19.2048151  60.8461055   9.6369024  17.1148845  64.8580966   7.0289221
  17.6400169  65.1968239   6.3038541  17.0271197  63.9227981   6.8452356
   8.7768894  68.7715039  19.1579098   9.0856020  68.5264186  20.0301798
   9.5744376  68.9761678  18.6697968   6.3187905  54.9472746  23.0539282
   6.3676061  55.8234869  22.6717052   6.8610419  54.4050139  22.4810925
  16.8042751  65.4913869  22.3340419  16.0138295  65.4738008  21.7944919
  16.5676105  66.0302163  23.0889456  16.9240626  62.3406336  19.6473148
  16.9738631  62.1756343  20.5888671  16.8154549  61.4733595  19.2571029
  14.2144388  58.3237264  20.9632455  15.1154251  58.1843729  20.6716452
  14.2892363  58.4891719  21.9030632   8.5487194  55.7004119  19.8085641
   7.6790503  55.9937685  19.5368229   8.7846674  56.2844564  20.5292904
  18.4258823  64.7603277  19.8915169  18.1343631  65.1233258  20.7278630
  17.8130954  64.0470286  19.7128501  19.6254505  62.3256157  12.4117740
  20.4601396  62.7645961  12.5755300  19.7613634  61.8494810  11.5925985
  16.6746011  59.8835892  18.3595227  17.1500133  60.0763538  17.5514079
  15.7511576  59.9395078  18.1138611  11.2526228  51.9183736  17.3251061
  11.7708171  52.6544762  16.9997550  10.8981360  52.2247729  18.1597820
  11.5038822  48.3384018  12.8451958  11.7840575  47.6707207  13.4712384
  12.2889429  48.5313114  12.3326622  15.3747680  56.7601652  16.5923533
  16.3265103  56.8599750  16.6135757  15.2051130  55.9679921  17.1021617
  13.3962059  53.8457235  16.7782934  12.8011992  54.1262248  16.0829422
  13.1111756  54.3351136  17.5499675  17.8535758  59.9807772  15.7065833
  17.8212078  59.0423772  15.8925516  18.4636381  60.0591808  14.9731657
  18.0030246  56.7718815  15.7524116  17.4869295  55.9877272  15.5654045
  18.8870195  56.4437532  15.9170635  15.6640973  50.5159831  11.7119928
  15.4665794  50.2074919  12.5963260  16.2740679  51.2421470  11.8417858
  23.6712308  61.0423779  14.8471869  24.4015696  60.7809067  15.4079573
  23.0619253  60.3052501  14.8873937  21.7527605  59.1831641  15.4446321
  21.0260768  59.0487606  14.8362812  21.3374892  59.4908470  16.2503039
   9.5757781  62.9021571  23.2093694  10.4960791  63.0800170  23.4033740
   9.5407364  61.9577616  23.0573393   2.5719854  60.8122606  15.8516475
   2.7905864  61.7439713  15.8704509   2.9845628  60.4530580  16.6371279
   9.4924072  51.3190691   7.8392163   8.6824800  50.9737776   8.2147409
  10.1808488  51.0098235   8.4279775  11.4214620  50.3968738   9.4616460
  11.9745658  50.8164191  10.1206483  11.6584706  49.4704486   9.5039416
   7.4447719  56.3855811  25.2419224   7.3444446  57.3350168  25.1731315
   7.2269261  56.0574050  24.3695294  14.7993427  52.5069263   8.9695124
  14.2192096  53.1654067   8.5873176  14.5329360  51.6846607   8.5582542
  13.2496993  51.9074320  11.1716444  13.7496772  52.0190855  10.3630763
  13.8932601  51.6035373  11.8117253   7.3078989  59.8152950  24.0584285
   6.8246071  60.6153310  24.2648174   7.3939928  59.8260895  23.1051729
   3.2352327  63.7057485  16.0952719   4.1895580  63.6741427  16.0282651
   3.0364850  63.2448109  16.9102945   3.8251709  62.2758601  18.6623517
   4.6444598  62.7702680  18.6858354   4.0988516  61.3590569  18.6341084
  13.5818305  54.6669353   8.0251472  12.6944160  54.9519004   7.8071667
  13.9972294  54.5063117   7.1778749  16.9332841  54.6915874  11.7405812
  17.7093231  55.1812327  12.0130428  16.2080975  55.1173928  12.1977681
  19.3705400  55.4043493  12.7979752  19.9649891  55.1639229  12.0873060
  19.4431983  54.6850624  13.4253288  13.5559329  60.1823889   8.2401762
  13.4994530  60.6392441   7.4009395  14.1087671  59.4214574   8.0624605
  17.3664135  55.9713621   9.0651882  17.1101069  55.5710257   9.8960090
  16.7417003  56.6857415   8.9402021  21.6776472  58.7109694  11.5723173
  21.1176030  58.7802884  12.3454735  21.0719976  58.5350679  10.8522670
  14.2894108  61.3728670   5.5354292  14.2342912  61.2072942   4.5942736
  13.6640163  62.0804703   5.6916481  11.6040015  63.6777582  24.8607854
  12.4731175  63.8518234  24.4994489  11.1246767  64.4971999  24.7383584
   5.7726195  70.7974683  16.5397288   6.6753442  70.8298293  16.8563783
   5.5463565  69.8675134  16.5543624  11.4142353  47.4679556   9.3685547
  10.6474749  46.9138043   9.5142229  11.8253058  47.5401425  10.2299698
   3.4184114  53.7564352  23.4590728   4.2815576  53.4001157  23.6694053
   2.8449525  53.4178247  24.1466132  23.2632491  75.3866208  14.2653129
  23.9010901  75.2672956  13.5616469  23.1453334  76.3347052  14.3241081
  20.0722197  75.3393636  14.2014654  19.7340709  75.2234701  13.3135189
  20.9411965  74.9384801  14.1815660  20.5541980  76.4928488  20.1600859
  20.5430621  76.0981286  19.2881363  20.7162620  75.7594561  20.7534631
  17.2749241  79.2765600  19.1080043  16.9839107  80.1811231  18.9926710
  17.9106226  79.3182127  19.8224113  18.2005448  76.6542448  15.6981403
  18.7969020  76.4298471  14.9838366  18.2580420  75.9127194  16.3006851
  22.8173759  73.1117662  11.3406337  23.6036849  72.6937085  10.9896754
  23.0812464  74.0163754  11.5087986  28.2182187  73.0492895  12.2439316
  28.9507358  72.4792112  12.4777145  27.4621542  72.6614496  12.6845821
  19.8358306  75.4720137   9.4402658  19.4716513  74.9450758  10.1515580
  20.6925422  75.0818606   9.2669144  25.7407607  66.7614469  16.7033924
  25.4090932  67.6309880  16.4795139  25.1453220  66.4450753  17.3827955
  22.2339126  78.9627015  16.1029837  21.9339849  79.8652054  15.9945644
  21.8890186  78.6959199  16.9550990  15.6851608  75.4140812  12.1366541
  14.7602104  75.2817026  12.3444233  15.9336021  76.1935031  12.6336484
  25.6336270  71.4809555  13.7827274  24.7253148  71.4124964  13.4886035
  25.5823866  71.9581500  14.6109100  19.7077136  72.8999201  21.7262172
  18.9310470  73.4593121  21.7165036  20.3467699  73.3855984  22.2477042
  27.4997917  69.6825994  15.5605148  26.8572297  69.9758527  14.9144943
  26.9952845  69.5678914  16.3658345  25.1538080  73.4289167   6.2491008
  26.0655936  73.6616554   6.0738705  24.6447727  74.0126211   5.6866086
  17.9623508  75.7084654  21.2880139  18.7038193  76.2469698  21.0114962
  17.2560494  76.3350943  21.4451690  23.4378848  77.8513795  19.8852300
  23.8462204  77.4096205  19.1406932  22.7156109  77.2766422  20.1386493
  19.7909918  72.7886402  17.2585857  20.6371113  73.2125815  17.4020506
  19.7308556  72.1320026  17.9524420  23.7607663  78.4114986  13.6404589
  23.1316525  78.5760700  12.9380657  23.3733325  78.8256595  14.4115553
  27.6396894  79.3469423  10.9948953  26.9547933  79.7268325  10.4445986
  27.7240744  79.9564750  11.7280900  22.9409363  70.4490770  18.9167031
  22.6970295  71.2032831  18.3801306  23.2169294  70.8276118  19.7514278
  24.8947826  76.9929382  17.5944296  25.1064721  77.6361142  16.9178677
  24.8477574  76.1591699  17.1266226  22.4974055  69.6047203  14.4980868
  21.6358534  69.9028457  14.7897606  22.5236490  69.8217602  13.5661901
  19.3135624  78.1489394  10.9054674  19.7773970  78.4277097  10.1159297
  19.0492423  77.2472838  10.7227765  16.2059706  77.6960875  13.8434437
  16.7761063  78.1248144  13.2051922  16.7967817  77.4143460  14.5418623
  16.6984872  72.8624303  22.0895449  16.0683533  73.5440583  22.3230845
  16.5920960  72.7507384  21.1448587  26.0093654  79.8701338  15.7666654
  26.8311098  79.4681525  15.4849335  26.0056057  79.7669572  16.7182769
  19.7750257  79.4185381  17.9227364  19.8394690  79.8805788  18.7585536
  19.0661181  78.7882746  18.0509674  10.2767547  72.7826589  15.4476364
  10.5275586  73.6673599  15.7133940  10.8127096  72.6031191  14.6751455
  34.0999647  76.2140086  12.1151625  33.3463355  75.6447484  11.9595629
  34.2347188  76.1802751  13.0622260  15.9765615  67.1645068  24.4520700
  15.5832560  66.6111267  25.1268344  16.7931755  67.4755647  24.8427217
  18.8933576  68.5802948  22.0440956  19.6343289  69.1810101  21.9645419
  19.1251499  67.8380585  21.4858999  14.0374914  73.7659315  20.3219186
  13.9228429  72.8644572  20.6226285  13.1819432  74.0123012  19.9704002
  21.1166752  81.7077055  21.9206686  20.6730606  80.9213434  21.6027591
  21.7783965  81.8956206  21.2550577  23.2147990  81.9879855  19.9488088
  23.1966465  82.8088736  19.4568357  24.1367910  81.8633930  20.1738229
  19.6721044  79.5023985  20.7911596  20.2049381  78.7412273  20.5610904
  19.1435125  79.2097636  21.5335751  22.8390739  64.6084050  16.3205238
  22.4955008  65.4985692  16.2444348  23.2069701  64.4185708  15.4574823
  20.3888132  69.4442362   9.8862911  19.5329729  69.0549213   9.7068550
  20.8015084  69.5234323   9.0262697  21.9187279  66.9788706  14.2854471
  21.4152075  66.9418841  13.4722276  22.2117886  67.8881448  14.3451128
  18.1630165  67.0627435  13.2920653  19.0283162  66.8670244  12.9326542
  18.2307674  66.8337787  14.2190010  27.7775296  77.3525016   6.7630846
  27.0004738  77.0136176   6.3186009  28.4566777  77.3577639   6.0885812
  22.5927325  72.4719754   6.6537454  22.2877460  72.7865903   7.5047597
  23.5457767  72.5501174   6.6964787  26.0166602  76.8258997  13.4197454
  25.3590277  77.5158259  13.5077583  26.8207002  77.2155429  13.7631441
  15.7692484  69.2929643  10.6637020  16.3436236  69.0704825   9.9310213
  16.3563466  69.3618338  11.4165621  24.8272061  75.1803370  11.4701396
  25.3403943  75.8133362  11.9723106  25.4773285  74.5804566  11.1044756
  18.0715152  66.1670892   9.3912089  17.4179564  65.8519909   8.7668704
  18.0295626  65.5446633  10.1171912  21.3052892  72.6552826  13.7159737
  20.3875453  72.8767773  13.5581425  21.7213036  72.7299136  12.8571444
  22.0887940  74.0544241   8.8462417  22.8359759  74.5665639   8.5369539
  22.3579529  73.7328294   9.7066811  25.5933857  80.1609372   9.5980539
  25.1396185  79.3200282   9.6545729  24.9627824  80.7970770   9.9355319
  24.5366777  71.0901358  10.8281206  23.7989534  70.5778744  11.1591449
  24.7893551  70.6501739  10.0164483  24.0366797  81.9985868  10.5330357
  24.3289771  82.5590925   9.8142723  24.5465417  82.2914429  11.2883516
  24.6378404  63.8677610  11.4222976  24.9437281  63.0074973  11.1348891
  25.3631009  64.4595230  11.2221969  18.9099484  74.1631403  11.9299167
  18.9648094  73.2105239  11.8541643  18.0990686  74.3190842  12.4140465
  16.8491844  72.7808462   9.6889545  16.0359710  73.0802633  10.0954738
  17.3450838  72.3864151  10.4064028  22.4466056  73.2450287  18.5204439
  22.8015443  73.4721760  19.3798905  23.0938187  73.5768664  17.8981695
  28.1763793  76.3668723   9.2253768  28.0381691  76.5570319   8.2974958
  27.8200011  77.1288106   9.6821820  16.3405919  70.3526818  15.3050780
  16.9805298  70.2115577  14.6073744  15.5083449  70.0661331  14.9289382
  28.2033172  78.4345250  14.2365040  28.6369679  78.3420539  15.0848094
  28.9164753  78.4102750  13.5985056  21.9361067  82.0347344  15.7698141
  21.9898089  82.6038280  16.5375856  21.0675849  82.2049229  15.4052178
  14.8159461  71.7364900  17.2522592  15.4882514  71.5282262  16.6035241
  13.9889247  71.5386986  16.8127824  29.0648722  78.4768951  16.7697925
  29.2584612  79.3814761  17.0157200  28.9649340  78.0176370  17.6036510
  20.7185033  68.3626841  19.2688253  20.0712948  69.0616791  19.1752729
  21.4886048  68.7962985  19.6364501  24.1263830  78.6275693  22.3438806
  23.9749337  78.3986245  21.4268890  24.1168510  79.5846295  22.3570151
  20.8949167  76.2007606  17.3285072  21.8241227  76.3518766  17.1554040
  20.4740197  76.2891627  16.4733719  19.6937499  80.2258270  15.0983610
  19.5548584  79.8577055  15.9709548  18.9052095  80.7405910  14.9267568
  21.2442714  79.6039873  12.4872448  20.9092546  79.5640643  13.3830098
  20.7446659  78.9384589  12.0142858  15.2186958  75.0107503  18.0125029
  15.0806756  74.2787742  18.6136568  16.1291881  74.9216403  17.7309217
  17.8469258  74.7227462  17.5008709  18.5568877  74.0820655  17.4595327
  17.8038567  74.9740357  18.4234889  25.8356037  81.6594816  20.4215288
  25.7768583  80.9754036  19.7545871  26.2375556  82.4013806  19.9695914
  16.5598192  71.7092680  19.3204348  16.0235549  71.2583419  19.9725944
  15.9714901  71.8438589  18.5774812  25.8373444  79.6234400  18.6529267
  24.9500223  79.2860322  18.7755666  26.4071995  78.8917431  18.8898033
  12.2937314  70.8448688  16.4057343  12.2095502  70.2374358  15.6707752
  11.4720020  71.3357706  16.4066839  19.3674598  84.2835852  15.6190511
  19.2944769  85.0890824  16.1309815  18.9251991  84.4827818  14.7938532
  22.4661028  69.3302252  11.7727538  22.9629727  68.5772214  11.4528608
  21.6948009  69.3666568  11.2070747  30.3190785  75.0342617  13.4145829
  30.3080661  75.9167333  13.0439762  29.4508164  74.6814168  13.2200366
  21.8273281  84.1822686  17.7748669  22.5401254  84.8170151  17.7024571
  21.3363310  84.2786552  16.9588671  23.5490808  78.0873939   9.3465961
  22.6147087  78.2075401   9.1770665  23.7267477  77.1846406   9.0825971
  19.0495996  71.4719635  11.4999222  18.6793784  70.9190675  12.1880128
  19.5455089  70.8677768  10.9474222  26.9363360  73.9291258   9.8815995
  27.4023812  74.7619250   9.8076298  27.3870860  73.4636240  10.5861254
  16.8785195  81.9317130  18.5954240  17.5794654  82.5653613  18.7483634
  16.4080310  82.2731861  17.8349879  25.0039591  80.2735079   6.8802147
  25.2799435  80.1591674   7.7896021  24.1344089  79.8752564   6.8414320
  24.9080022  66.2971845  13.9206896  23.9943102  66.5276072  14.0889103
  25.3373124  66.3810289  14.7720929  24.6786481  74.4861737  16.4206791
  24.0257931  74.7337644  15.7659243  25.0566861  73.6725875  16.0869268
  20.7274054  75.2281548  22.9072828  20.0514691  75.1275677  23.5775203
  21.5501688  75.0720762  23.3708825  19.4696837  86.5348476  17.1430444
  20.0215145  86.6980097  17.9079529  19.8103030  87.1252913  16.4710468
  14.4461330  68.8823625  17.7452328  14.5102656  69.7438456  17.3329726
  14.3828450  68.2697627  17.0124687  13.9213602  70.9546758  21.3925363
  14.5485641  70.5723835  22.0062887  13.0641521  70.7360960  21.7581055
  24.3207711  81.3609733  22.9979098  24.8647615  81.9739691  22.5034053
  23.7394556  81.9189311  23.5146111  22.6065224  84.4830451  14.1294126
  22.4816363  83.6820191  13.6205071  23.2644315  84.9776644  13.6408096
  14.2273392  70.8379184  13.3071266  13.5059978  71.4515151  13.1678739
  15.0166648  71.3736948  13.2287912  24.6700132  82.2839471  15.7573676
  23.7230468  82.1644822  15.6852003  25.0182905  81.3961969  15.8399937
  17.0299706  68.1733610  19.5811918  17.5534108  68.4195907  20.3438227
  16.8112039  69.0053645  19.1615055  21.6746566  82.0792187  11.9578028
  21.5271528  81.1508895  12.1385598  22.5000059  82.1012278  11.4735103
  25.2780688  82.9020746  13.0442901  26.2027235  82.6963607  12.9067352
  25.1095991  82.6537147  13.9532242  18.2352251  69.1147305  17.2661588
  17.8949071  68.3155118  17.6682268  17.5291257  69.4149016  16.6938421
  18.8868723  66.1996618  15.7188911  19.7094792  65.7257096  15.5967802
  19.1306786  66.9787101  16.2187598  21.6708080  69.9330025   6.9510145
  21.8871694  70.8154663   6.6498973  21.1902147  69.5416238   6.2215787
  16.4107301  72.8915738  13.5280890  16.2651882  73.2056041  14.4205171
  15.9332505  73.5100639  12.9751789  18.2703684  69.8818286  13.5761779
  18.2565253  68.9859380  13.2394077  18.9876112  69.8888950  14.2100065
  20.1229815  70.3155626  15.6214907  19.8647593  71.2372697  15.6199237
  19.5914855  69.9186061  16.3115371  25.0676004  83.4206414   8.4004992
  25.2412881  82.8552836   7.6478845  25.5604895  84.2207308   8.2184482
  10.8852964  75.4321083  16.4668551  10.3406432  76.2080891  16.5988825
  11.7632313  75.7791887  16.3087673  17.6740580  68.7632667   8.8449350
  17.7956491  67.8349313   9.0440237  17.3842623  68.7771352   7.9327665
  20.5431771  66.4487577  11.9816069  20.5653467  66.5126910  11.0268049
  20.9599830  65.6092086  12.1756576  30.9215395  76.1842836  10.0195292
  31.3646541  75.4350162   9.6214415  30.0441905  76.1752973   9.6369024
  11.6718985  74.5590979  19.3598708  10.9300721  74.7073614  19.9463338
  11.3511730  74.8199245  18.4965457  27.9542599  80.1872883   7.0289221
  28.4793923  80.5260156   6.3038541  27.8664952  79.2519899   6.8452356
  19.6162648  84.1006957  19.1579098  19.9249774  83.8556104  20.0301798
  20.4138130  84.3053596  18.6697968  17.1581660  70.2764664  23.0539282
  17.2069815  71.1526787  22.6717052  17.7004174  69.7342057  22.4810925
  27.6436505  80.8205787  22.3340419  26.8532049  80.8029926  21.7944919
  27.4069860  81.3594081  23.0889456  27.7634380  77.6698253  19.6473148
  27.8132385  77.5048261  20.5888671  27.6548304  76.8025513  19.2571029
  25.0538143  73.6529182  20.9632455  25.9548006  73.5135646  20.6716452
  25.1286117  73.8183636  21.9030632  19.3880948  71.0296036  19.8085641
  18.5184258  71.3229602  19.5368229  19.6240429  71.6136481  20.5292904
  29.2652577  80.0895195  19.8915169  28.9737386  80.4525176  20.7278630
  28.6524709  79.3762203  19.7128501  30.4648260  77.6548075  12.4117740
  31.2995151  78.0937879  12.5755300  30.6007388  77.1786728  11.5925985
  27.5139766  75.2127810  18.3595227  27.9893887  75.4055456  17.5514079
  26.5905331  75.2686995  18.1138611  22.0919982  67.2475653  17.3251061
  22.6101926  67.9836680  16.9997550  21.7375115  67.5539646  18.1597820
  22.3432576  63.6675936  12.8451958  22.6234330  62.9999125  13.4712384
  23.1283183  63.8605031  12.3326622  26.2141435  72.0893570  16.5923533
  27.1658857  72.1891667  16.6135757  26.0444885  71.2971838  17.1021617
  24.2355814  69.1749153  16.7782934  23.6405746  69.4554166  16.0829422
  23.9505511  69.6643054  17.5499675  28.6929512  75.3099689  15.7065833
  28.6605832  74.3715690  15.8925516  29.3030136  75.3883726  14.9731657
  28.8424001  72.1010733  15.7524116  28.3263049  71.3169189  15.5654045
  29.7263949  71.7729449  15.9170635  26.5034728  65.8451748  11.7119928
  26.3059549  65.5366837  12.5963260  27.1134433  66.5713387  11.8417858
  34.5106062  76.3715696  14.8471869  35.2409451  76.1100984  15.4079573
  33.9013008  75.6344418  14.8873937  32.5921359  74.5123559  15.4446321
  31.8654523  74.3779524  14.8362812  32.1768646  74.8200387  16.2503039
  20.4151536  78.2313489  23.2093694  21.3354545  78.4092088  23.4033740
  20.3801119  77.2869534  23.0573393  13.4113608  76.1414523  15.8516475
  13.6299618  77.0731631  15.8704509  13.8239382  75.7822498  16.6371279
  20.3317826  66.6482608   7.8392163  19.5218554  66.3029693   8.2147409
  21.0202243  66.3390152   8.4279775  22.2608374  65.7260655   9.4616460
  22.8139413  66.1456109  10.1206483  22.4978461  64.7996403   9.5039416
  18.2841474  71.7147729  25.2419224  18.1838200  72.6642086  25.1731315
  18.0663016  71.3865968  24.3695294  25.6387181  67.8361180   8.9695124
  25.0585850  68.4945984   8.5873176  25.3723114  67.0138525   8.5582542
  24.0890748  67.2366238  11.1716444  24.5890526  67.3482773  10.3630763
  24.7326356  66.9327291  11.8117253  18.1472744  75.1444868  24.0584285
  17.6639825  75.9445228  24.2648174  18.2333683  75.1552813  23.1051729
  14.0746081  79.0349402  16.0952719  15.0289335  79.0033345  16.0282651
  13.8758605  78.5740026  16.9102945  14.6645463  77.6050519  18.6623517
  15.4838352  78.0994597  18.6858354  14.9382271  76.6882487  18.6341084
  24.4212059  69.9961271   8.0251472  23.5337914  70.2810921   7.8071667
  24.8366049  69.8355034   7.1778749  27.7726596  70.0207792  11.7405812
  28.5486986  70.5104244  12.0130428  27.0474730  70.4465846  12.1977681
  30.2099154  70.7335411  12.7979752  30.8043645  70.4931147  12.0873060
  30.2825738  70.0142542  13.4253288  24.3953083  75.5115807   8.2401762
  24.3388285  75.9684358   7.4009395  24.9481426  74.7506491   8.0624605
  28.2057889  71.3005539   9.0651882  27.9494823  70.9002174   9.8960090
  27.5810757  72.0149333   8.9402021  32.5170227  74.0401612  11.5723173
  31.9569785  74.1094801  12.3454735  31.9113730  73.8642597  10.8522670
  25.1287862  76.7020588   5.5354292  25.0736666  76.5364859   4.5942736
  24.5033918  77.4096621   5.6916481   9.9180377  71.9388652  19.3615714
  10.5639241  71.4287606  19.8502939   9.7097529  72.6757334  19.9359139
  22.4433770  79.0069500  24.8607854  23.3124929  79.1810152  24.4994489
  21.9640521  79.8263917  24.7383584  18.4383988  66.2028697   5.1139610
  18.4262658  67.1470537   5.2707881  19.3307410  66.0198842   4.8199071
  16.6119950  86.1266601  16.5397288  17.5147197  86.1590211  16.8563783
  16.3857320  85.1967052  16.5543624  22.2536107  62.7971474   9.3685547
  21.4868503  62.2429960   9.5142229  22.6646812  62.8693342  10.2299698
  14.2577868  69.0856269  23.4590728  15.1209330  68.7293074  23.6694053
  13.6843279  68.7470164  24.1466132  34.1026245  90.7158126  14.2653129
  34.7404655  90.5964873  13.5616469  33.9847088  91.6638970  14.3241081
  30.9115952  90.6685554  14.2014654  30.5734463  90.5526619  13.3135189
  31.7805720  90.2676719  14.1815660  31.3935735  91.8220406  20.1600859
  31.3824375  91.4273204  19.2881363  31.5556374  91.0886478  20.7534631
  28.1142996  94.6057517  19.1080043  27.8232862  95.5103148  18.9926710
  28.7499980  94.6474045  19.8224113  29.0399203  91.9834366  15.6981403
  29.6362775  91.7590388  14.9838366  29.0974174  91.2419111  16.3006851
  33.6567514  88.4409580  11.3406337  34.4430603  88.0229003  10.9896754
  33.9206218  89.3455672  11.5087986  39.0575941  88.3784813  12.2439316
  39.7901113  87.8084030  12.4777145  38.3015297  87.9906413  12.6845821
  30.6752061  90.8012054   9.4402658  30.3110268  90.2742675  10.1515580
  31.5319177  90.4110523   9.2669144  36.5801361  82.0906387  16.7033924
  36.2484686  82.9601798  16.4795139  35.9846975  81.7742671  17.3827955
  33.0732881  94.2918933  16.1029837  32.7733604  95.1943972  15.9945644
  32.7283940  94.0251116  16.9550990  26.5245362  90.7432730  12.1366541
  25.5995859  90.6108944  12.3444233  26.7729776  91.5226949  12.6336484
  36.4730025  86.8101473  13.7827274  35.5646902  86.7416882  13.4886035
  36.4217620  87.2873418  14.6109100  30.5470890  88.2291119  21.7262172
  29.7704225  88.7885039  21.7165036  31.1861454  88.7147902  22.2477042
  38.3391671  85.0117912  15.5605148  37.6966051  85.3050445  14.9144943
  37.8346600  84.8970832  16.3658345  35.9931835  88.7581085   6.2491008
  36.9049691  88.9908471   6.0738705  35.4841482  89.3418129   5.6866086
  28.8017263  91.0376572  21.2880139  29.5431947  91.5761616  21.0114962
  28.0954248  91.6642861  21.4451690  34.2772602  93.1805713  19.8852300
  34.6855958  92.7388123  19.1406932  33.5549864  92.6058340  20.1386493
  30.6303672  88.1178319  17.2585857  31.4764868  88.5417733  17.4020506
  30.5702310  87.4611944  17.9524420  34.6001417  93.7406903  13.6404589
  33.9710280  93.9052617  12.9380657  34.2127079  94.1548513  14.4115553
  38.4790649  94.6761341  10.9948953  37.7941687  95.0560242  10.4445986
  38.5634498  95.2856668  11.7280900  33.7803118  85.7782688  18.9167031
  33.5364050  86.5324748  18.3801306  34.0563048  86.1568035  19.7514278
  35.7341581  92.3221300  17.5944296  35.9458476  92.9653060  16.9178677
  35.6871329  91.4883617  17.1266226  33.3367810  84.9339121  14.4980868
  32.4752289  85.2320374  14.7897606  33.3630244  85.1509520  13.5661901
  30.1529379  93.4781311  10.9054674  30.6167724  93.7569014  10.1159297
  29.8886177  92.5764756  10.7227765  27.0453460  93.0252793  13.8434437
  27.6154817  93.4540061  13.2051922  27.6361572  92.7435378  14.5418623
  27.5378627  88.1916220  22.0895449  26.9077287  88.8732501  22.3230845
  27.4314714  88.0799302  21.1448587  36.8487409  95.1993255  15.7666654
  37.6704852  94.7973443  15.4849335  36.8449811  95.0961490  16.7182769
  30.6144012  94.7477299  17.9227364  30.6788444  95.2097706  18.7585536
  29.9054936  94.1174664  18.0509674  21.1161302  88.1118507  15.4476364
  21.3669340  88.9965517  15.7133940  21.6520850  87.9323108  14.6751455
  44.9393402  91.5432004  12.1151625  44.1857110  90.9739402  11.9595629
  45.0740943  91.5094668  13.0622260  26.8159369  82.4936986  24.4520700
  26.4226315  81.9403185  25.1268344  27.6325510  82.8047565  24.8427217
  29.7327330  83.9094865  22.0440956  30.4737044  84.5102018  21.9645419
  29.9645253  83.1672503  21.4858999  24.8768668  89.0951232  20.3219186
  24.7622183  88.1936490  20.6226285  24.0213186  89.3414929  19.9704002
  31.9560506  97.0368973  21.9206686  31.5124360  96.2505351  21.6027591
  32.6177720  97.2248123  21.2550577  34.0541744  97.3171773  19.9488088
  34.0360219  98.1380654  19.4568357  34.9761664  97.1925848  20.1738229
  30.5114798  94.8315902  20.7911596  31.0443135  94.0704190  20.5610904
  29.9828879  94.5389554  21.5335751  33.6784493  79.9375968  16.3205238
  33.3348763  80.8277610  16.2444348  34.0463456  79.7477626  15.4574823
  31.2281887  84.7734280   9.8862911  30.3723483  84.3841130   9.7068550
  31.6408839  84.8526241   9.0262697  32.7581034  82.3080623  14.2854471
  32.2545829  82.2710758  13.4722276  33.0511640  83.2173366  14.3451128
  29.0023919  82.3919353  13.2920653  29.8676916  82.1962162  12.9326542
  29.0701428  82.1629705  14.2190010  33.4321079  87.8011671   6.6537454
  33.1271215  88.1157821   7.5047597  34.3851521  87.8793091   6.6964787
  36.8560357  92.1550915  13.4197454  36.1984031  92.8450177  13.5077583
  37.6600756  92.5447347  13.7631441  26.6086239  84.6221561  10.6637020
  27.1829990  84.3996742   9.9310213  27.1957221  84.6910255  11.4165621
  35.6665816  90.5095288  11.4701396  36.1797697  91.1425280  11.9723106
  36.3167040  89.9096483  11.1044756  28.9108906  81.4962810   9.3912089
  28.2573319  81.1811827   8.7668704  28.8689380  80.8738550  10.1171912
  32.1446647  87.9844743  13.7159737  31.2269208  88.2059690  13.5581425
  32.5606790  88.0591054  12.8571444  32.9281694  89.3836159   8.8462417
  33.6753513  89.8957556   8.5369539  33.1973284  89.0620212   9.7066811
  36.4327612  95.4901289   9.5980539  35.9789939  94.6492199   9.6545729
  35.8021579  96.1262688   9.9355319  35.3760532  86.4193275  10.8281206
  34.6383288  85.9070662  11.1591449  35.6287305  85.9793657  10.0164483
  34.8760551  97.3277786  10.5330357  35.1683526  97.8882843   9.8142723
  35.3859172  97.6206347  11.2883516  35.4772159  79.1969527  11.4222976
  35.7831036  78.3366891  11.1348891  36.2024764  79.7887148  11.2221969
  29.7493239  89.4923320  11.9299167  29.8041848  88.5397157  11.8541643
  28.9384441  89.6482760  12.4140465  27.6885599  88.1100380   9.6889545
  26.8753464  88.4094551  10.0954738  28.1844593  87.7156069  10.4064028
  33.2859810  88.5742205  18.5204439  33.6409198  88.8013678  19.3798905
  33.9331941  88.9060581  17.8981695  39.0157547  91.6960641   9.2253768
  38.8775446  91.8862236   8.2974958  38.6593766  92.4580023   9.6821820
  27.1799673  85.6818736  15.3050780  27.8199053  85.5407495  14.6073744
  26.3477204  85.3953249  14.9289382  39.0426927  93.7637168  14.2365040
  39.4763433  93.6712457  15.0848094  39.7558507  93.7394668  13.5985056
  32.7754822  97.3639262  15.7698141  32.8291844  97.9330198  16.5375856
  31.9069603  97.5341147  15.4052178  25.6553215  87.0656818  17.2522592
  26.3276268  86.8574180  16.6035241  24.8283002  86.8678904  16.8127824
  39.9042476  93.8060868  16.7697925  40.0978366  94.7106679  17.0157200
  39.8043094  93.3468287  17.6036510  31.5578787  83.6918759  19.2688253
  30.9106702  84.3908708  19.1752729  32.3279802  84.1254903  19.6364501
  34.9657585  93.9567611  22.3438806  34.8143091  93.7278163  21.4268890
  34.9562264  94.9138212  22.3570151  31.7342921  91.5299524  17.3285072
  32.6634981  91.6810683  17.1554040  31.3133951  91.6183544  16.4733719
  30.5331253  95.5550188  15.0983610  30.3942339  95.1868972  15.9709548
  29.7445849  96.0697828  14.9267568  32.0836468  94.9331791  12.4872448
  31.7486301  94.8932561  13.3830098  31.5840414  94.2676507  12.0142858
  26.0580712  90.3399421  18.0125029  25.9200510  89.6079660  18.6136568
  26.9685636  90.2508321  17.7309217  28.6863013  90.0519380  17.5008709
  29.3962631  89.4112572  17.4595327  28.6432321  90.3032275  18.4234889
  36.6749792  96.9886733  20.4215288  36.6162338  96.3045954  19.7545871
  37.0769310  97.7305723  19.9695914  27.3991947  87.0384598  19.3204348
  26.8629304  86.5875336  19.9725944  26.8108655  87.1730507  18.5774812
  36.6767199  94.9526317  18.6529267  35.7893978  94.6152239  18.7755666
  37.2465750  94.2209349  18.8898033  23.1331068  86.1740606  16.4057343
  23.0489257  85.5666275  15.6707752  22.3113775  86.6649624  16.4066839
  33.3054782  84.6594169  11.7727538  33.8023482  83.9064132  11.4528608
  32.5341764  84.6958486  11.2070747  41.1584539  90.3634535  13.4145829
  41.1474416  91.2459250  13.0439762  40.2901919  90.0106086  13.2200366
  32.6667036  99.5114604  17.7748669  33.3795008 100.1462069  17.7024571
  32.1757064  99.6078470  16.9588671  34.3884563  93.4165856   9.3465961
  33.4540841  93.5367319   9.1770665  34.5661231  92.5138323   9.0825971
  29.8889751  86.8011552  11.4999222  29.5187538  86.2482593  12.1880128
  30.3848843  86.1969686  10.9474222  37.7757114  89.2583176   9.8815995
  38.2417566  90.0911167   9.8076298  38.2264615  88.7928157  10.5861254
  27.7178949  97.2609047  18.5954240  28.4188409  97.8945530  18.7483634
  27.2474064  97.6023779  17.8349879  35.8433345  95.6026997   6.8802147
  36.1193189  95.4883592   7.7896021  34.9737844  95.2044482   6.8414320
  35.7473777  81.6263763  13.9206896  34.8336857  81.8567990  14.0889103
  36.1766878  81.7102207  14.7720929  35.5180235  89.8153655  16.4206791
  34.8651686  90.0629562  15.7659243  35.8960615  89.0017793  16.0869268
  31.5667808  90.5573466  22.9072828  30.8908445  90.4567595  23.5775203
  32.3895442  90.4012680  23.3708825  25.2855084  84.2115543  17.7452328
  25.3496411  85.0730374  17.3329726  25.2222205  83.5989545  17.0124687
  24.7607357  86.2838676  21.3925363  25.3879396  85.9015753  22.0062887
  23.9035276  86.0652877  21.7581055  35.1601466  96.6901651  22.9979098
  35.7041370  97.3031609  22.5034053  34.5788310  97.2481229  23.5146111
  33.4458978  99.8122369  14.1294126  33.3210118  99.0112109  13.6205071
  34.1038070 100.3068562  13.6408096  25.0667147  86.1671101  13.3071266
  24.3453732  86.7807069  13.1678739  25.8560402  86.7028866  13.2287912
  35.5093887  97.6131389  15.7573676  34.5624222  97.4936740  15.6852003
  35.8576660  96.7253887  15.8399937  27.8693460  83.5025528  19.5811918
  28.3927862  83.7487824  20.3438227  27.6505794  84.3345563  19.1615055
  32.5140320  97.4084105  11.9578028  32.3665283  96.4800812  12.1385598
  33.3393814  97.4304196  11.4735103  36.1174442  98.2312664  13.0442901
  37.0420989  98.0255525  12.9067352  35.9489745  97.9829065  13.9532242
  29.0746005  84.4439223  17.2661588  28.7342826  83.6447036  17.6682268
  28.3685012  84.7440934  16.6938421  29.7262477  81.5288535  15.7188911
  30.5488546  81.0549013  15.5967802  29.9700541  82.3079019  16.2187598
  32.5101834  85.2621943   6.9510145  32.7265449  86.1446581   6.6498973
  32.0295902  84.8708156   6.2215787  27.2501056  88.2207656  13.5280890
  27.1045637  88.5347959  14.4205171  26.7726259  88.8392556  12.9751789
  29.1097439  85.2110204  13.5761779  29.0959007  84.3151297  13.2394077
  29.8269867  85.2180868  14.2100065  30.9623569  85.6447544  15.6214907
  30.7041347  86.5664615  15.6199237  30.4308610  85.2477979  16.3115371
  21.7246718  90.7613000  16.4668551  21.1800186  91.5372808  16.5988825
  22.6026068  91.1083805  16.3087673  28.5134335  84.0924584   8.8449350
  28.6350246  83.1641230   9.0440237  28.2236377  84.1063270   7.9327665
  31.3825525  81.7779495  11.9816069  31.4047222  81.8418828  11.0268049
  31.7993584  80.9384003  12.1756576  41.7609149  91.5134754  10.0195292
  42.2040295  90.7642079   9.6214415  40.8835660  91.5044891   9.6369024
  22.5112740  89.8882897  19.3598708  21.7694476  90.0365532  19.9463338
  22.1905484  90.1491162  18.4965457  30.4556403  99.4298875  19.1579098
  30.7643529  99.1848022  20.0301798  31.2531885  99.6345513  18.6697968
  27.9975414  85.6056582  23.0539282  28.0463570  86.4818704  22.6717052
  28.5397928  85.0633975  22.4810925  38.4830260  96.1497705  22.3340419
  37.6925804  96.1321844  21.7944919  38.2463614  96.6885998  23.0889456
  38.6028135  92.9990171  19.6473148  38.6526140  92.8340179  20.5888671
  38.4942058  92.1317430  19.2571029  35.8931897  88.9821099  20.9632455
  36.7941760  88.8427564  20.6716452  35.9679872  89.1475554  21.9030632
  30.2274703  86.3587954  19.8085641  29.3578012  86.6521520  19.5368229
  30.4634183  86.9428399  20.5292904  40.1046332  95.4187113  19.8915169
  39.8131140  95.7817093  20.7278630  39.4918463  94.7054121  19.7128501
  41.3042014  92.9839992  12.4117740  42.1388905  93.4229797  12.5755300
  41.4401143  92.5078646  11.5925985  38.3533520  90.5419727  18.3595227
  38.8287642  90.7347374  17.5514079  37.4299085  90.5978913  18.1138611
  32.9313736  82.5767571  17.3251061  33.4495680  83.3128598  16.9997550
  32.5768869  82.8831564  18.1597820  33.1826331  78.9967853  12.8451958
  33.4628084  78.3291042  13.4712384  33.9676938  79.1896949  12.3326622
  37.0535189  87.4185487  16.5923533  38.0052612  87.5183585  16.6135757
  36.8838639  86.6263756  17.1021617  35.0749568  84.5041071  16.7782934
  34.4799501  84.7846083  16.0829422  34.7899265  84.9934972  17.5499675
  39.5323267  90.6391607  15.7065833  39.4999587  89.7007608  15.8925516
  40.1423890  90.7175644  14.9731657  39.6817755  87.4302651  15.7524116
  39.1656804  86.6461107  15.5654045  40.5657704  87.1021367  15.9170635
  37.3428482  81.1743666  11.7119928  37.1453303  80.8658754  12.5963260
  37.9528188  81.9005305  11.8417858  45.3499817  91.7007614  14.8471869
  46.0803205  91.4392902  15.4079573  44.7406762  90.9636336  14.8873937
  43.4315114  89.8415477  15.4446321  42.7048277  89.7071441  14.8362812
  43.0162401  90.1492305  16.2503039  31.2545290  93.5605406  23.2093694
  32.1748300  93.7384005  23.4033740  31.2194873  92.6161452  23.0573393
  24.2507363  91.4706441  15.8516475  24.4693373  92.4023549  15.8704509
  24.6633137  91.1114415  16.6371279  31.1711581  81.9774526   7.8392163
  30.3612309  81.6321611   8.2147409  31.8595997  81.6682070   8.4279775
  33.1002129  81.0552573   9.4616460  33.6533167  81.4748026  10.1206483
  33.3372215  80.1288321   9.5039416  29.1235228  87.0439647  25.2419224
  29.0231955  87.9934004  25.1731315  28.9056770  86.7157886  24.3695294
  36.4780936  83.1653098   8.9695124  35.8979605  83.8237902   8.5873176
  36.2116869  82.3430443   8.5582542  34.9284502  82.5658156  11.1716444
  35.4284281  82.6774690  10.3630763  35.5720110  82.2619209  11.8117253
  28.9866498  90.4736785  24.0584285  28.5033580  91.2737146  24.2648174
  29.0727437  90.4844730  23.1051729  24.9139836  94.3641320  16.0952719
  25.8683089  94.3325262  16.0282651  24.7152359  93.9031944  16.9102945
  25.5039218  92.9342436  18.6623517  26.3232107  93.4286515  18.6858354
  25.7776025  92.0174404  18.6341084  35.2605814  85.3253189   8.0251472
  34.3731669  85.6102839   7.8071667  35.6759803  85.1646952   7.1778749
  38.6120350  85.3499709  11.7405812  39.3880740  85.8396162  12.0130428
  37.8868484  85.7757764  12.1977681  41.0492909  86.0627329  12.7979752
  41.6437399  85.8223065  12.0873060  41.1219492  85.3434459  13.4253288
  35.2346838  90.8407724   8.2401762  35.1782039  91.2976276   7.4009395
  35.7875180  90.0798409   8.0624605  39.0451644  86.6297456   9.0651882
  38.7888578  86.2294092   9.8960090  38.4204512  87.3441250   8.9402021
  43.3563981  89.3693530  11.5723173  42.7963539  89.4386719  12.3454735
  42.7507485  89.1934514  10.8522670  20.7574132  87.2680570  19.3615714
  21.4032996  86.7579524  19.8502939  20.5491283  88.0049252  19.9359139
  33.2827524  94.3361418  24.8607854  34.1518684  94.5102070  24.4994489
  32.8034276  95.1555834  24.7383584  29.2777742  81.5320615   5.1139610
  29.2656412  82.4762455   5.2707881  30.1701164  81.3490760   4.8199071
  33.0929862  78.1263391   9.3685547  32.3262258  77.5721878   9.5142229
  33.5040567  78.1985260  10.2299698  25.0971623  84.4148187  23.4590728
  25.9603085  84.0584992  23.6694053  24.5237034  84.0762082  24.1466132
  47.4195116  97.4198305  16.7033924  47.0878441  98.2893716  16.4795139
  46.8240729  97.1034589  17.3827955  49.1785426 100.3409829  15.5605148
  48.5359806 100.6342362  14.9144943  48.6740354 100.2262750  16.3658345
  41.4697427 103.4470237  17.2585857  42.3158622 103.8709651  17.4020506
  41.4096065 102.7903861  17.9524420  44.6196872 101.1074605  18.9167031
  44.3757804 101.8616666  18.3801306  44.8956803 101.4859953  19.7514278
  44.1761564 100.2631038  14.4980868  43.3146043 100.5612292  14.7897606
  44.2023999 100.4801437  13.5661901  37.6553124  97.8228904  24.4520700
  37.2620069  97.2695102  25.1268344  38.4719264  98.1339482  24.8427217
  40.5721085  99.2386783  22.0440956  41.3130798  99.8393936  21.9645419
  40.8039008  98.4964421  21.4858999  44.5178248  95.2667886  16.3205238
  44.1742517  96.1569528  16.2444348  44.8857210  95.0769543  15.4574823
  43.5974788  97.6372541  14.2854471  43.0939584  97.6002676  13.4722276
  43.8905395  98.5465284  14.3451128  39.8417674  97.7211271  13.2920653
  40.7070671  97.5254079  12.9326542  39.9095183  97.4921622  14.2190010
  39.7502661  96.8254728   9.3912089  39.0967073  96.5103745   8.7668704
  39.7083135  96.2030468  10.1171912  46.3165913  94.5261445  11.4222976
  46.6224790  93.6658808  11.1348891  47.0418518  95.1179065  11.2221969
  44.1253565 103.9034122  18.5204439  44.4802952 104.1305595  19.3798905
  44.7725696 104.2352499  17.8981695  38.0193428 101.0110653  15.3050780
  38.6592807 100.8699412  14.6073744  37.1870958 100.7245167  14.9289382
  42.3972542  99.0210676  19.2688253  41.7500457  99.7200626  19.1752729
  43.1673557  99.4546820  19.6364501  38.2385701 102.3676516  19.3204348
  37.7023058 101.9167254  19.9725944  37.6502410 102.5022425  18.5774812
  46.5867531  96.9555680  13.9206896  45.6730611  97.1859907  14.0889103
  47.0160633  97.0394124  14.7720929  36.1248839  99.5407461  17.7452328
  36.1890165 100.4022292  17.3329726  36.0615959  98.9281462  17.0124687
  35.6001111 101.6130593  21.3925363  36.2273150 101.2307671  22.0062887
  34.7429030 101.3944795  21.7581055  38.7087215  98.8317445  19.5811918
  39.2321617  99.0779742  20.3438227  38.4899548  99.6637480  19.1615055
  39.9139760  99.7731141  17.2661588  39.5736580  98.9738954  17.6682268
  39.2078766 100.0732851  16.6938421  40.5656232  96.8580453  15.7188911
  41.3882301  96.3840931  15.5967802  40.8094295  97.6370937  16.2187598
  39.9491193 100.5402122  13.5761779  39.9352762  99.6443215  13.2394077
  40.6663621 100.5472785  14.2100065  41.8017324 100.9739462  15.6214907
  41.5435102 101.8956532  15.6199237  41.2702364 100.5769896  16.3115371
  42.2219280  97.1071412  11.9816069  42.2440976  97.1710745  11.0268049
  42.6387339  96.2675921  12.1756576  38.8369169 100.9348499  23.0539282
  38.8857324 101.8110622  22.6717052  39.3791683 100.3925892  22.4810925
  46.7325652 104.3113017  20.9632455  47.6335515 104.1719482  20.6716452
  46.8073626 104.4767472  21.9030632  41.0668457 101.6879872  19.8085641
  40.1971767 101.9813438  19.5368229  41.3027938 102.2720317  20.5292904
  43.7707491  97.9059489  17.3251061  44.2889435  98.6420515  16.9997550
  43.4162624  98.2123482  18.1597820  44.0220085  94.3259771  12.8451958
  44.3021839  93.6582960  13.4712384  44.8070692  94.5188867  12.3326622
  47.8928944 102.7477405  16.5923533  48.8446366 102.8475503  16.6135757
  47.7232394 101.9555674  17.1021617  45.9143323  99.8332988  16.7782934
  45.3193255 100.1138001  16.0829422  45.6293020 100.3226889  17.5499675
  43.9323616  93.4555309   9.3685547  43.1656012  92.9013796   9.5142229
  44.3434321  93.5277178  10.2299698  35.9365377  99.7440105  23.4590728
  36.7996839  99.3876910  23.6694053  35.3630788  99.4054000  24.1466132
  20.5541981  53.4990611   6.8846166  20.5430622  53.1043409   6.0126670
  20.7162621  52.7656683   7.4779937  17.2749243  56.2827722   5.8325350
  16.9839109  57.1873353   5.7172016  17.9106227  56.3244250   6.5469420
  22.2339128  55.9689138   2.8275144  21.9339851  56.8714177   2.7190951
  21.8890187  55.7021321   3.6796297  19.7077137  49.9061324   8.4507478
  18.9310471  50.4655244   8.4410343  20.3467700  50.3918107   8.9722348
  17.9623510  52.7146777   8.0125445  18.7038194  53.2531821   7.7360269
  17.2560495  53.3413066   8.1696997  23.4378849  54.8575917   6.6097607
  23.8462205  54.4158328   5.8652239  22.7156111  54.2828545   6.8631800
  19.7909919  49.7948524   3.9831164  20.6371114  50.2187938   4.1265813
  19.7308557  49.1382149   4.6769727  23.7607664  55.4177108   0.3649896
  23.1316526  55.5822822  -0.3374037  23.3733326  55.8318718   1.1360860
  27.6396896  56.3531546  -2.2805741  26.9547934  56.7330447  -2.8308707
  27.7240745  56.9626873  -1.5473793  22.9409365  47.4552893   5.6412337
  22.6970296  48.2094953   5.1046613  23.2169295  47.8338240   6.4759584
  24.8947827  53.9991505   4.3189603  25.1064723  54.6423265   3.6423984
  24.8477576  53.1653822   3.8511533  16.6984873  49.8686425   8.8140755
  16.0683534  50.5502706   9.0476152  16.5920961  49.7569507   7.8693893
  26.0093655  56.8763460   2.4911960  26.8311099  56.4743648   2.2094642
  26.0056058  56.7731695   3.4428076  19.7750259  56.4247504   4.6472671
  19.8394691  56.8867911   5.4830843  19.0661183  55.7944869   4.7754981
  34.0999648  53.2202209  -1.1603068  33.3463357  52.6509607  -1.3159064
  34.2347190  53.1864873  -0.2132434  15.9765616  44.1707191  11.1766006
  15.5832562  43.6173390  11.8513651  16.7931756  44.4817770  11.5672524
  18.8933577  45.5865070   8.7686263  19.6343290  46.1872223   8.6890725
  19.1251500  44.8442708   8.2104305  14.0374915  50.7721437   7.0464493
  13.9228430  49.8706695   7.3471591  13.1819433  51.0185134   6.6949309
  21.1166753  58.7139178   8.6451993  20.6730607  57.9275556   8.3272898
  21.7783966  58.9018328   7.9795884  23.2147991  58.9941978   6.6733394
  23.1966466  59.8150859   6.1813664  24.1367911  58.8696053   6.8983536
  19.6721045  56.5086107   7.5156903  20.2049382  55.7474395   7.2856211
  19.1435126  56.2159759   8.2581057  26.0166604  53.8321120   0.1442761
  25.3590278  54.5220381   0.2322890  26.8207003  54.2217552   0.4876747
  24.0366798  59.0047991  -2.7424336  24.3289772  59.5653048  -3.4611971
  24.5465419  59.2976552  -1.9871177  22.4466057  50.2512410   5.2449746
  22.8015445  50.4783883   6.1044212  23.0938188  50.5830786   4.6227001
  28.2033174  55.4407372   0.9610347  28.6369680  55.3482662   1.8093401
  28.9164754  55.4164873   0.3230363  21.9361068  59.0409467   2.4943447
  21.9898091  59.6100403   3.2621163  21.0675850  59.2111352   2.1297484
  29.0648723  55.4831073   3.4943232  29.2584613  56.3876884   3.7402507
  28.9649341  55.0238492   4.3281817  24.1263832  55.6337816   9.0684113
  23.9749338  55.4048368   8.1514196  24.1168511  56.5908417   9.0815458
  20.8949168  53.2069729   4.0530379  21.8241228  53.3580888   3.8799346
  20.4740198  53.2953749   3.1979026  19.6937500  57.2320393   1.8228917
  19.5548586  56.8639177   2.6954855  18.9052096  57.7468032   1.6512874
  15.2186959  52.0169626   4.7370336  15.0806757  51.2849865   5.3381875
  16.1291883  51.9278526   4.4554523  17.8469260  51.7289585   4.2254015
  18.5568878  51.0882777   4.1840634  17.8038568  51.9802480   5.1480196
  25.8356038  58.6656938   7.1460594  25.7768585  57.9816159   6.4791177
  26.2375557  59.4075928   6.6941220  25.8373446  56.6296522   5.3774574
  24.9500224  56.2922444   5.5000973  26.4071997  55.8979554   5.6143340
  19.3674599  61.2897975   2.3435817  19.2944771  62.0952946   2.8555122
  18.9251992  61.4889941   1.5183839  30.3190786  52.0404740   0.1391136
  30.3080662  52.9229455  -0.2314931  29.4508166  51.6876291  -0.0554327
  21.8273283  61.1884809   4.4993976  22.5401255  61.8232274   4.4269877
  21.3363311  61.2848675   3.6833978  16.8785196  58.9379252   5.3199547
  17.5794656  59.5715735   5.4728941  16.4080311  59.2793984   4.5595186
  24.6786482  51.4923860   3.1452097  24.0257932  51.7399767   2.4904550
  25.0566862  50.6787998   2.8114574  20.7274055  52.2343671   9.6318134
  20.0514692  52.1337800  10.3020509  21.5501689  52.0782884  10.0954131
  19.4696838  63.5410598   3.8675750  20.0215146  63.7042220   4.6324835
  19.8103031  64.1315036   3.1955775  13.9213604  47.9608880   8.1170669
  14.5485643  47.5785958   8.7308194  13.0641523  47.7423082   8.4826362
  24.3207712  58.3671856   9.7224405  24.8647616  58.9801814   9.2279359
  23.7394557  58.9251434  10.2391418  22.6065225  61.4892574   0.8539432
  22.4816365  60.6882314   0.3450378  23.2644316  61.9838767   0.3653402
  24.6700134  59.2901594   2.4818982  23.7230469  59.1706945   2.4097309
  25.0182907  58.4024092   2.5645244  21.6746567  59.0854310  -1.3176665
  21.5271529  58.1571017  -1.1369095  22.5000060  59.1074401  -1.8019590
  25.2780689  59.9082869  -0.2311793  26.2027236  59.7025730  -0.3687341
  25.1095992  59.6599270   0.6777549  19.6162649  61.1069080   5.8824405
  19.9249776  60.8618226   6.7547104  20.4138131  61.3115718   5.3943275
  17.1581661  47.2826786   9.7784589  17.2069816  48.1588909   9.3962358
  17.7004175  46.7404180   9.2056232  27.6436507  57.8267910   9.0585726
  26.8532050  57.8092049   8.5190225  27.4069861  58.3656203   9.8134762
  27.7634382  54.6760376   6.3718454  27.8132387  54.5110384   7.3133977
  27.6548305  53.8087635   5.9816335  25.0538144  50.6591304   7.6877761
  25.9548007  50.5197769   7.3961759  25.1286119  50.8245759   8.6275939
  19.3880949  48.0358159   6.5330947  18.5184259  48.3291725   6.2613536
  19.6240430  48.6198604   7.2538211  29.2652579  57.0957318   6.6160476
  28.9737387  57.4587298   7.4523937  28.6524710  56.3824326   6.4373808
  30.4648261  54.6610197  -0.8636954  31.2995152  55.1000001  -0.6999393
  30.6007390  54.1848851  -1.6828708  27.5139767  52.2189932   5.0840534
  27.9893888  52.4117579   4.2759385  26.5905332  52.2749118   4.8383918
  26.2141436  49.0955692   3.3168840  27.1658859  49.1953790   3.3381064
  26.0444886  48.3033961   3.8266924  28.6929514  52.3161812   2.4311139
  28.6605834  51.3777813   2.6170823  29.3030137  52.3945849   1.6976964
  28.8424002  49.1072855   2.4769422  28.3263051  48.3231312   2.2899351
  29.7263951  48.7791572   2.6415942  34.5106063  53.3777819   1.5717176
  35.2409452  53.1163107   2.1324879  33.9013009  52.6406541   1.6119244
  32.5921361  51.5185681   2.1691627  31.8654524  51.3841646   1.5608119
  32.1768647  51.8262510   2.9748345  20.4151537  55.2375611   9.9339000
  21.3354546  55.4154210  10.1279047  20.3801120  54.2931656   9.7818700
  18.2841475  48.7209852  11.9664530  18.1838202  49.6704208  11.8976621
  18.0663017  48.3928090  11.0940600  18.1472745  52.1506990  10.7829592
  17.6639827  52.9507350  10.9893481  18.2333684  52.1614935   9.8297036
  14.0746082  56.0411525   2.8198026  15.0289336  56.0095467   2.7527957
  13.8758606  55.5802149   3.6348252  14.6645464  54.6112641   5.3868823
  15.4838353  55.1056720   5.4103661  14.9382272  53.6944609   5.3586391
  22.4433771  56.0131622  11.5853161  23.3124931  56.1872275  11.2239796
  21.9640522  56.8326039  11.4628890  16.6119951  63.1328723   3.2642595
  17.5147198  63.1652334   3.5809090  16.3857321  62.2029174   3.2788931
  14.2577870  46.0918392  10.1836035  15.1209331  45.7355197  10.3939359
  13.6843280  45.7532287  10.8711439  34.1026247  67.7220248   0.9898436
  34.7404657  67.6026996   0.2861776  33.9847090  68.6701092   1.0486388
  30.9115953  67.6747677   0.9259960  30.5734464  67.5588741   0.0380495
  31.7805721  67.2738842   0.9060967  31.3935736  68.8282528   6.8846166
  31.3824377  68.4335327   6.0126670  31.5556375  68.0948601   7.4779937
  28.1142997  71.6119640   5.8325350  27.8232863  72.5165271   5.7172016
  28.7499981  71.6536168   6.5469420  29.0399204  68.9896489   2.4226710
  29.6362776  68.7652511   1.7083673  29.0974175  68.2481234   3.0252157
  33.6567515  65.4471702  -1.9348356  34.4430604  65.0291125  -2.2857939
  33.9206219  66.3517794  -1.7666708  39.0575942  65.3846935  -1.0315378
  39.7901114  64.8146152  -0.7977548  38.3015298  64.9968536  -0.5908872
  30.6752062  67.8074177  -3.8352035  30.3110269  67.2804798  -3.1239114
  31.5319178  67.4172646  -4.0085550  36.5801363  59.0968510   3.4279231
  36.2484687  59.9663921   3.2040446  35.9846976  58.7804794   4.1073261
  33.0732882  71.2981056   2.8275144  32.7733605  72.2006094   2.7190951
  32.7283942  71.0313239   3.6796297  26.5245364  67.7494852  -1.1388152
  25.5995860  67.6171067  -0.9310460  26.7729777  68.5289072  -0.6418210
  36.4730026  63.8163596   0.5072581  35.5646903  63.7479004   0.2131342
  36.4217622  64.2935541   1.3354406  30.5470892  65.2353241   8.4507478
  29.7704226  65.7947161   8.4410343  31.1861455  65.7210024   8.9722348
  38.3391672  62.0180034   2.2850455  37.6966053  62.3112567   1.6390249
  37.8346601  61.9032954   3.0903652  35.9931836  65.7643207  -7.0263686
  36.9049692  65.9970594  -7.2015988  35.4841483  66.3480252  -7.5888607
  28.8017264  68.0438695   8.0125445  29.5431948  68.5823739   7.7360269
  28.0954250  68.6704983   8.1696997  34.2772604  70.1867835   6.6097607
  34.6855960  69.7450246   5.8652239  33.5549865  69.6120463   6.8631800
  30.6303674  65.1240442   3.9831164  31.4764869  65.5479855   4.1265813
  30.5702311  64.4674066   4.6769727  34.6001418  70.7469026   0.3649896
  33.9710281  70.9114740  -0.3374037  34.2127080  71.1610635   1.1360860
  38.4790650  71.6823464  -2.2805741  37.7941688  72.0622365  -2.8308707
  38.5634500  72.2918790  -1.5473793  33.7803119  62.7844810   5.6412337
  33.5364051  63.5386871   5.1046613  34.0563050  63.1630158   6.4759584
  35.7341582  69.3283423   4.3189603  35.9458477  69.9715183   3.6423984
  35.6871330  68.4945739   3.8511533  33.3367811  61.9401243   1.2226175
  32.4752290  62.2382497   1.5142913  33.3630245  62.1571642   0.2907208
  30.1529380  70.4843434  -2.3700019  30.6167726  70.7631137  -3.1595397
  29.8886178  69.5826878  -2.5526929  27.0453461  70.0314915   0.5679744
  27.6154818  70.4602184  -0.0702772  27.6361573  69.7497500   1.2663930
  27.5378628  65.1978343   8.8140755  26.9077288  65.8794624   9.0476152
  27.4314716  65.0861424   7.8693893  36.8487410  72.2055378   2.4911960
  37.6704853  71.8035565   2.2094642  36.8449813  72.1023612   3.4428076
  30.6144013  71.7539421   4.6472671  30.6788446  72.2159829   5.4830843
  29.9054937  71.1236786   4.7754981  21.1161303  65.1180629   2.1721670
  21.3669342  66.0027639   2.4379246  21.6520852  64.9385231   1.3996762
  44.9393403  68.5494127  -1.1603068  44.1857111  67.9801525  -1.3159064
  45.0740944  68.5156791  -0.2132434  26.8159371  59.4999109  11.1766006
  26.4226316  58.9465307  11.8513651  27.6325511  59.8109687  11.5672524
  29.7327332  60.9156988   8.7686263  30.4737045  61.5164141   8.6890725
  29.9645254  60.1734626   8.2104305  24.8768670  66.1013355   7.0464493
  24.7622185  65.1998612   7.3471591  24.0213187  66.3477052   6.6949309
  31.9560507  74.0431095   8.6451993  31.5124361  73.2567474   8.3272898
  32.6177721  74.2310246   7.9795884  34.0541745  74.3233895   6.6733394
  34.0360221  75.1442776   6.1813664  34.9761665  74.1987971   6.8983536
  30.5114799  71.8378025   7.5156903  31.0443136  71.0766313   7.2856211
  29.9828881  71.5451677   8.2581057  33.6784494  56.9438091   3.0450545
  33.3348764  57.8339732   2.9689655  34.0463457  56.7539748   2.1820130
  31.2281888  61.7796403  -3.3891782  30.3723485  61.3903253  -3.5686143
  31.6408840  61.8588363  -4.2491996  32.7581035  59.3142746   1.0099778
  32.2545830  59.2772881   0.1967583  33.0511642  60.2235489   1.0696434
  29.0023921  59.3981476   0.0165960  29.8676917  59.2024284  -0.3428151
  29.0701430  59.1691827   0.9435316  33.4321080  64.8073794  -6.6217239
  33.1271216  65.1219943  -5.7707096  34.3851522  64.8855214  -6.5789906
  36.8560358  69.1613038   0.1442761  36.1984033  69.8512299   0.2322890
  37.6600757  69.5509470   0.4876747  26.6086240  61.6283684  -2.6117674
  27.1829992  61.4058865  -3.3444481  27.1957222  61.6972378  -1.8589072
  35.6665817  67.5157410  -1.8053297  36.1797699  68.1487402  -1.3031587
  36.3167041  66.9158606  -2.1709937  32.1446648  64.9906866   0.4405043
  31.2269209  65.2121813   0.2826731  32.5606791  65.0653176  -0.4183249
  32.9281696  66.3898282  -4.4292276  33.6753515  66.9019679  -4.7385154
  33.1973285  66.0682334  -3.5687883  36.4327613  72.4963412  -3.6774155
  35.9789940  71.6554322  -3.6208964  35.8021580  73.1324810  -3.3399374
  35.3760533  63.4255398  -2.4473487  34.6383290  62.9132784  -2.1163245
  35.6287306  62.9855780  -3.2590210  34.8760552  74.3339909  -2.7424336
  35.1683527  74.8944966  -3.4611971  35.3859173  74.6268470  -1.9871177
  35.4772160  56.2031650  -1.8531718  35.7831037  55.3429013  -2.1405803
  36.2024765  56.7949270  -2.0532724  29.7493240  66.4985443  -1.3455527
  29.8041850  65.5459279  -1.4213050  28.9384442  66.6544882  -0.8614228
  27.6885600  65.1162503  -3.5865148  26.8753465  65.4156673  -3.1799956
  28.1844594  64.7218192  -2.8690666  33.2859811  65.5804327   5.2449746
  33.6409199  65.8075800   6.1044212  33.9331943  65.9122704   4.6227001
  39.0157548  68.7022763  -4.0500925  38.8775447  68.8924359  -4.9779736
  38.6593767  69.4642146  -3.5932874  27.1799675  62.6880858   2.0296087
  27.8199054  62.5469617   1.3319050  26.3477205  62.4015372   1.6534689
  39.0426928  70.7699290   0.9610347  39.4763435  70.6774579   1.8093401
  39.7558509  70.7456791   0.3230363  32.7754823  74.3701384   2.4943447
  32.8291845  74.9392321   3.2621163  31.9069604  74.5403269   2.1297484
  25.6553216  64.0718940   3.9767898  26.3276270  63.8636303   3.3280547
  24.8283003  63.8741026   3.5373131  39.9042478  70.8122991   3.4943232
  40.0978368  71.7168801   3.7402507  39.8043096  70.3530410   4.3281817
  31.5578788  60.6980881   5.9933559  30.9106703  61.3970831   5.8998036
  32.3279804  61.1317025   6.3609807  34.9657586  70.9629734   9.0684113
  34.8143093  70.7340285   8.1514196  34.9562266  71.9200335   9.0815458
  31.7342923  68.5361646   4.0530379  32.6634983  68.6872806   3.8799346
  31.3133953  68.6245667   3.1979026  30.5331254  72.5612311   1.8228917
  30.3942340  72.1931095   2.6954855  29.7445851  73.0759950   1.6512874
  32.0836470  71.9393913  -0.7882246  31.7486302  71.8994683   0.1075404
  31.5840415  71.2738629  -1.2611835  26.0580714  67.3461543   4.7370336
  25.9200511  66.6141782   5.3381875  26.9685637  67.2570444   4.4554523
  28.6863014  67.0581503   4.2254015  29.3962633  66.4174695   4.1840634
  28.6432322  67.3094398   5.1480196  36.6749793  73.9948856   7.1460594
  36.6162339  73.3108076   6.4791177  37.0769311  74.7367846   6.6941220
  27.3991948  64.0446721   6.0449655  26.8629305  63.5937459   6.6971251
  26.8108657  64.1792629   5.3020119  36.6767200  71.9588440   5.3774574
  35.7893979  71.6214362   5.5000973  37.2465751  71.2271471   5.6143340
  23.1331069  63.1802728   3.1302649  23.0489258  62.5728398   2.3953059
  22.3113776  63.6711747   3.1312146  30.2068354  76.6189892   2.3435817
  30.1338525  77.4244864   2.8555122  29.7645747  76.8181858   1.5183839
  33.3054783  61.6656292  -1.5027156  33.8023483  60.9126254  -1.8226086
  32.5341765  61.7020609  -2.0683946  41.1584541  67.3696657   0.1391136
  41.1474417  68.2521373  -0.2314931  40.2901920  67.0168208  -0.0554327
  32.6667037  76.5176726   4.4993976  33.3795009  77.1524191   4.4269877
  32.1757066  76.6140592   3.6833978  34.3884564  70.4227979  -3.9288732
  33.4540843  70.5429442  -4.0984028  34.5661232  69.5200446  -4.1928723
  29.8889752  63.8073675  -1.7755471  29.5187540  63.2544715  -1.0874566
  30.3848844  63.2031808  -2.3280471  37.7757115  66.2645298  -3.3938698
  38.2417568  67.0973290  -3.4678396  38.2264616  65.7990280  -2.6893440
  27.7178951  74.2671170   5.3199547  28.4188410  74.9007653   5.4728941
  27.2474066  74.6085901   4.5595186  35.8433346  72.6089120  -6.3952546
  36.1193190  72.4945714  -5.4858672  34.9737845  72.2106604  -6.4340373
  35.7473778  58.6325885   0.6452203  34.8336858  58.8630112   0.8134410
  36.1766880  58.7164329   1.4966235  35.5180237  66.8215777   3.1452097
  34.8651687  67.0691685   2.4904550  35.8960616  66.0079915   2.8114574
  31.5667810  67.5635588   9.6318134  30.8908447  67.4629718  10.3020509
  32.3895443  67.4074802  10.0954131  30.3090592  78.8702516   3.8675750
  30.8608900  79.0334137   4.6324835  30.6496786  79.4606954   3.1955775
  25.2855086  61.2177666   4.4697635  25.3496412  62.0792497   4.0575033
  25.2222206  60.6051667   3.7369993  24.7607358  63.2900798   8.1170669
  25.3879397  62.9077875   8.7308194  23.9035277  63.0715000   8.4826362
  35.1601467  73.6963773   9.7224405  35.7041371  74.3093732   9.2279359
  34.5788312  74.2543352  10.2391418  33.4458980  76.8184491   0.8539432
  33.3210119  76.0174231   0.3450378  34.1038071  77.3130685   0.3653402
  25.0667148  63.1733224   0.0316573  24.3453734  63.7869192  -0.1075954
  25.8560404  63.7090989  -0.0466781  35.5093888  74.6193511   2.4818982
  34.5624224  74.4998863   2.4097309  35.8576661  73.7316009   2.5645244
  27.8693461  60.5087650   6.3057224  28.3927863  60.7549947   7.0683534
  27.6505795  61.3407685   5.8860362  32.5140321  74.4146228  -1.3176665
  32.3665284  73.4862935  -1.1369095  33.3393815  74.4366318  -1.8019590
  36.1174443  75.2374786  -0.2311793  37.0420991  75.0317648  -0.3687341
  35.9489747  74.9891188   0.6777549  29.0746007  61.4501345   3.9906895
  28.7342827  60.6509159   4.3927575  28.3685013  61.7503056   3.4183728
  29.7262478  58.5350658   2.4434218  30.5488548  58.0611136   2.3213108
  29.9700542  59.3141142   2.9432904  32.5101836  62.2684065  -6.3244548
  32.7265450  63.1508703  -6.6255720  32.0295903  61.8770279  -7.0538906
  27.2501057  65.2269779   0.2526197  27.1045638  65.5410082   1.1450478
  26.7726261  65.8454679  -0.3002905  29.1097440  62.2172326   0.3007086
  29.0959009  61.3213420  -0.0360616  29.8269868  62.2242990   0.9345372
  30.9623571  62.6509667   2.3460214  30.7041349  63.5726737   2.3444544
  30.4308611  62.2540101   3.0360678  21.7246719  67.7675123   3.1913858
  21.1800187  68.5434931   3.3234132  22.6026069  68.1145927   3.0332979
  28.5134336  61.0986707  -4.4305344  28.6350247  60.1703353  -4.2314456
  28.2236378  61.1125393  -5.3427028  31.3825526  58.7841617  -1.2938624
  31.4047223  58.8480950  -2.2486644  31.7993585  57.9446126  -1.0998118
  41.7609151  68.5196877  -3.2559401  42.2040297  67.7704202  -3.6540278
  40.8835661  68.5107013  -3.6385669  22.5112741  66.8945019   6.0844015
  21.7694477  67.0427655   6.6708645  22.1905485  67.1553285   5.2210764
  30.4556404  76.4360997   5.8824405  30.7643530  76.1910144   6.7547104
  31.2531886  76.6407636   5.3943275  27.9975415  62.6118704   9.7784589
  28.0463571  63.4880827   9.3962358  28.5397930  62.0696097   9.2056232
  38.4830261  73.1559827   9.0585726  37.6925805  73.1383966   8.5190225
  38.2463616  73.6948121   9.8134762  38.6028136  70.0052294   6.3718454
  38.6526141  69.8402301   7.3133977  38.4942060  69.1379553   5.9816335
  35.8931899  65.9883222   7.6877761  36.7941761  65.8489687   7.3961759
  35.9679873  66.1537677   8.6275939  30.2274704  63.3650077   6.5330947
  29.3578013  63.6583643   6.2613536  30.4634184  63.9490522   7.2538211
  40.1046333  72.4249235   6.6160476  39.8131141  72.7879216   7.4523937
  39.4918464  71.7116244   6.4373808  41.3042015  69.9902115  -0.8636954
  42.1388907  70.4291919  -0.6999393  41.4401144  69.5140768  -1.6828708
  38.3533521  67.5481850   5.0840534  38.8287643  67.7409496   4.2759385
  37.4299087  67.6041036   4.8383918  32.9313738  59.5829693   4.0496368
  33.4495682  60.3190720   3.7242856  32.5768871  59.8893687   4.8843127
  33.1826332  56.0029976  -0.4302736  33.4628086  55.3353165   0.1957691
  33.9676939  56.1959072  -0.9428072  37.0535190  64.4247610   3.3168840
  38.0052613  64.5245708   3.3381064  36.8838641  63.6325879   3.8266924
  35.0749570  61.5103193   3.5028241  34.4799502  61.7908206   2.8074729
  34.7899266  61.9997094   4.2744982  39.5323268  67.6453730   2.4311139
  39.4999588  66.7069730   2.6170823  40.1423892  67.7237766   1.6976964
  39.6817757  64.4364773   2.4769422  39.1656805  63.6523230   2.2899351
  40.5657705  64.1083490   2.6415942  37.3428483  58.1805789  -1.5634765
  37.1453305  57.8720877  -0.6791433  37.9528189  58.9067428  -1.4336835
  45.3499818  68.7069737   1.5717176  46.0803206  68.4455025   2.1324879
  44.7406763  67.9698458   1.6119244  43.4315115  66.8477599   2.1691627
  42.7048279  66.7133564   1.5608119  43.0162402  67.1554428   2.9748345
  31.2545291  70.5667529   9.9339000  32.1748301  70.7446128  10.1279047
  31.2194874  69.6223574   9.7818700  24.2507364  68.4768563   2.5761781
  24.4693374  69.4085671   2.5949815  24.6633138  68.1176538   3.3616585
  31.1711582  58.9836649  -5.4362530  30.3612310  58.6383734  -5.0607284
  31.8595999  58.6744192  -4.8474919  33.1002130  58.0614696  -3.8138234
  33.6533169  58.4810149  -3.1548210  33.3372216  57.1350444  -3.7715278
  29.1235229  64.0501769  11.9664530  29.0231956  64.9996126  11.8976621
  28.9056771  63.7220008  11.0940600  36.4780937  60.1715221  -4.3059569
  35.8979606  60.8300025  -4.6881517  36.2116870  59.3492565  -4.7172152
  34.9284504  59.5720278  -2.1038249  35.4284282  59.6836813  -2.9123930
  35.5720111  59.2681331  -1.4637441  28.9866499  67.4798908  10.7829592
  28.5033581  68.2799268  10.9893481  29.0727438  67.4906853   9.8297036
  24.9139837  71.3703443   2.8198026  25.8683090  71.3387385   2.7527957
  24.7152360  70.9094066   3.6348252  25.5039219  69.9404559   5.3868823
  26.3232108  70.4348637   5.4103661  25.7776027  69.0236527   5.3586391
  35.2605815  62.3315311  -5.2503221  34.3731670  62.6164962  -5.4683026
  35.6759804  62.1709074  -6.0975944  38.6120351  62.3561832  -1.5348882
  39.3880741  62.8458285  -1.2624265  37.8868485  62.7819886  -1.0777012
  41.0492910  63.0689451  -0.4774941  41.6437401  62.8285187  -1.1881633
  41.1219494  62.3496582   0.1498595  35.2346839  67.8469847  -5.0352931
  35.1782040  68.3038398  -5.8745298  35.7875181  67.0860532  -5.2130088
  39.0451645  63.6359579  -4.2102811  38.7888579  63.2356215  -3.3794604
  38.4204513  64.3503373  -4.3352672  43.3563983  66.3755652  -1.7031520
  42.7963541  66.4448841  -0.9299958  42.7507486  66.1996637  -2.4232024
  20.7574133  64.2742693   6.0861021  21.4032997  63.7641647   6.5748246
  20.5491284  65.0111374   6.6604446  33.2827525  71.3423540  11.5853161
  34.1518685  71.5164192  11.2239796  32.8034277  72.1617957  11.4628890
  27.4513706  78.4620641   3.2642595  28.3540952  78.4944251   3.5809090
  27.2251076  77.5321092   3.2788931  33.0929863  55.1325514  -3.9069147
  32.3262259  54.5784001  -3.7612464  33.5040568  55.2047383  -3.0454995
  25.0971624  61.4210310  10.1836035  25.9603086  61.0647115  10.3939359
  24.5237035  61.0824205  10.8711439  42.2329490  84.1574446   6.8846166
  42.2218131  83.7627244   6.0126670  42.3950130  83.4240519   7.4779937
  38.9536752  86.9411558   5.8325350  38.6626618  87.8457189   5.7172016
  39.5893736  86.9828085   6.5469420  47.4195117  74.4260427   3.4279231
  47.0878442  75.2955838   3.2040446  46.8240731  74.1096711   4.1073261
  41.3864646  80.5645159   8.4507478  40.6097980  81.1239079   8.4410343
  42.0255209  81.0501942   8.9722348  49.1785427  77.3471952   2.2850455
  48.5359807  77.6404485   1.6390249  48.6740355  77.2324872   3.0903652
  39.6411019  83.3730612   8.0125445  40.3825703  83.9115656   7.7360269
  38.9348004  83.9996901   8.1696997  45.1166358  85.5159753   6.6097607
  45.5249714  85.0742163   5.8652239  44.3943620  84.9412380   6.8631800
  41.4697428  80.4532360   3.9831164  42.3158623  80.8771773   4.1265813
  41.4096066  79.7965984   4.6769727  44.6196874  78.1136728   5.6412337
  44.3757805  78.8678789   5.1046613  44.8956804  78.4922076   6.4759584
  44.1761565  77.2693161   1.2226175  43.3146044  77.5674415   1.5142913
  44.2024000  77.4863560   0.2907208  38.3772382  80.5270261   8.8140755
  37.7471043  81.2086541   9.0476152  38.2708470  80.4153342   7.8693893
  41.4537768  87.0831339   4.6472671  41.5182200  87.5451746   5.4830843
  40.7448692  86.4528704   4.7754981  31.9555058  80.4472547   2.1721670
  32.2063096  81.3319557   2.4379246  32.4914606  80.2677149   1.3996762
  37.6553125  74.8291026  11.1766006  37.2620071  74.2757225  11.8513651
  38.4719265  75.1401605  11.5672524  40.5721086  76.2448905   8.7686263
  41.3130799  76.8456059   8.6890725  40.8039009  75.5026543   8.2104305
  35.7162424  81.4305273   7.0464493  35.6015939  80.5290530   7.3471591
  34.8606942  81.6768970   6.6949309  42.7954262  89.3723013   8.6451993
  42.3518116  88.5859392   8.3272898  43.4571475  89.5602164   7.9795884
  41.3508554  87.1669942   7.5156903  41.8836891  86.4058231   7.2856211
  40.8222635  86.8743594   8.2581057  44.5178249  72.2730008   3.0450545
  44.1742518  73.1631650   2.9689655  44.8857212  72.0831666   2.1820130
  43.5974789  74.6434664   1.0099778  43.0939585  74.6064799   0.1967583
  43.8905396  75.5527406   1.0696434  39.8417675  74.7273393   0.0165960
  40.7070672  74.5316202  -0.3428151  39.9095184  74.4983745   0.9435316
  39.7502662  73.8316850  -3.8842604  39.0967074  73.5165867  -4.5085989
  39.7083136  73.2092591  -3.1582781  46.3165915  71.5323568  -1.8531718
  46.6224791  70.6720931  -2.1405803  47.0418519  72.1241188  -2.0532724
  44.1253566  80.9096245   5.2449746  44.4802954  81.1367718   6.1044212
  44.7725697  81.2414622   4.6227001  38.0193429  78.0172776   2.0296087
  38.6592808  77.8761535   1.3319050  37.1870960  77.7307289   1.6534689
  36.4946971  79.4010858   3.9767898  37.1670024  79.1928220   3.3280547
  35.6676757  79.2032944   3.5373131  42.3972543  76.0272799   5.9933559
  41.7500458  76.7262749   5.8998036  43.1673558  76.4608943   6.3609807
  45.8051341  86.2921651   9.0684113  45.6536847  86.0632203   8.1514196
  45.7956020  87.2492253   9.0815458  42.5736677  83.8653564   4.0530379
  43.5028737  84.0164724   3.8799346  42.1527707  83.9537585   3.1979026
  36.8974468  82.6753461   4.7370336  36.7594266  81.9433700   5.3381875
  37.8079391  82.5862361   4.4554523  39.5256769  82.3873420   4.2254015
  40.2356387  81.7466613   4.1840634  39.4826077  82.6386315   5.1480196
  38.2385703  79.3738638   6.0449655  37.7023060  78.9229377   6.6971251
  37.6502411  79.5084547   5.3020119  33.9724824  78.5094646   3.1302649
  33.8883013  77.9020316   2.3953059  33.1507530  79.0003664   3.1312146
  38.5572705  89.5963088   5.3199547  39.2582165  90.2299570   5.4728941
  38.0867820  89.9377819   4.5595186  46.5867533  73.9617803   0.6452203
  45.6730612  74.1922030   0.8134410  47.0160634  74.0456247   1.4966235
  42.4061564  82.8927506   9.6318134  41.7302201  82.7921635  10.3020509
  43.2289198  82.7366720  10.0954131  36.1248840  76.5469583   4.4697635
  36.1890167  77.4084414   4.0575033  36.0615960  75.9343585   3.7369993
  35.6001113  78.6192716   8.1170669  36.2273152  78.2369793   8.7308194
  34.7429032  78.4006918   8.4826362  45.9995221  89.0255691   9.7224405
  46.5435125  89.6385649   9.2279359  45.4182066  89.5835269  10.2391418
  35.9060902  78.5025142   0.0316573  35.1847488  79.1161109  -0.1075954
  36.6954158  79.0382906  -0.0466781  38.7087216  75.8379568   6.3057224
  39.2321618  76.0841865   7.0683534  38.4899549  76.6699603   5.8860362
  39.9139761  76.7793263   3.9906895  39.5736581  75.9801076   4.3927575
  39.2078767  77.0794974   3.4183728  40.5656233  73.8642576   2.4434218
  41.3882302  73.3903054   2.3213108  40.8094296  74.6433059   2.9432904
  38.0894812  80.5561696   0.2526197  37.9439392  80.8701999   1.1450478
  37.6120015  81.1746597  -0.3002905  39.9491194  77.5464244   0.3007086
  39.9352763  76.6505337  -0.0360616  40.6663623  77.5534908   0.9345372
  41.8017325  77.9801584   2.3460214  41.5435103  78.9018655   2.3444544
  41.2702366  77.5832019   3.0360678  32.5640474  83.0967041   3.1913858
  32.0193942  83.8726849   3.3234132  33.4419824  83.4437845   3.0332979
  42.2219281  74.1133535  -1.2938624  42.2440978  74.1772868  -2.2486644
  42.6387340  73.2738044  -1.0998118  33.3506496  82.2236937   6.0844015
  32.6088232  82.3719572   6.6708645  33.0299240  82.4845202   5.2210764
  38.8369170  77.9410622   9.7784589  38.8857325  78.8172745   9.3962358
  39.3791684  77.3988015   9.2056232  49.3224016  88.4851745   9.0585726
  48.5319559  88.4675884   8.5190225  49.0857370  89.0240039   9.8134762
  49.4421891  85.3344211   6.3718454  49.4919896  85.1694219   7.3133977
  49.3335814  84.4671470   5.9816335  46.7325653  81.3175139   7.6877761
  47.6335516  81.1781604   7.3961759  46.8073628  81.4829594   8.6275939
  41.0668458  78.6941994   6.5330947  40.1971768  78.9875560   6.2613536
  41.3027939  79.2782439   7.2538211  43.7707492  74.9121611   4.0496368
  44.2889436  75.6482638   3.7242856  43.4162625  75.2185604   4.8843127
  44.0220086  71.3321894  -0.4302736  44.3021840  70.6645083   0.1957691
  44.8070693  71.5250989  -0.9428072  47.8928945  79.7539528   3.3168840
  48.8446368  79.8537625   3.3381064  47.7232395  78.9617796   3.8266924
  45.9143324  76.8395111   3.5028241  45.3193256  77.1200124   2.8074729
  45.6293021  77.3289012   4.2744982  42.0939046  85.8959446   9.9339000
  43.0142055  86.0738045  10.1279047  42.0588629  84.9515492   9.7818700
  35.0901118  83.8060481   2.5761781  35.3087128  84.7377589   2.5949815
  35.5026892  83.4468456   3.3616585  39.9628984  79.3793687  11.9664530
  39.8625711  80.3288044  11.8976621  39.7450526  79.0511926  11.0940600
  39.8260254  82.8090826  10.7829592  39.3427336  83.6091186  10.9893481
  39.9121193  82.8198771   9.8297036  35.7533591  86.6995360   2.8198026
  36.7076845  86.6679303   2.7527957  35.5546115  86.2385984   3.6348252
  36.3432973  85.2696476   5.3868823  37.1625862  85.7640555   5.4103661
  36.6169781  84.3528445   5.3586391  31.5967888  79.6034610   6.0861021
  32.2426751  79.0933564   6.5748246  31.3885039  80.3403292   6.6604446
  44.1221280  86.6715458  11.5853161  44.9912440  86.8456110  11.2239796
  43.6428031  87.4909875  11.4628890  43.9323618  70.4617432  -3.9069147
  43.1656013  69.9075918  -3.7612464  44.3434323  70.5339300  -3.0454995
  35.9365379  76.7502227  10.1836035  36.7996840  76.3939032  10.3939359
  35.3630789  76.4116122  10.8711439  48.4946879  90.1582944  11.1766006
  48.1013825  89.6049143  11.8513651  49.3113020  90.4693523  11.5672524
  46.7759133  92.0794145  10.1836035  47.6390595  91.7230950  10.3939359
  46.2024544  91.7408040  10.8711439  42.2329492  61.1636569  -6.3908527
  42.2218132  60.7689367  -7.2628024  42.3950131  60.4302641  -5.7974756
  38.9536753  63.9473680  -7.4429343  38.6626619  64.8519311  -7.5582677
  39.5893737  63.9890208  -6.7285274  41.3864647  57.5707282  -4.8247215
  40.6097982  58.1301202  -4.8344351  42.0255211  58.0564065  -4.3032345
  39.6411020  60.3792735  -5.2629248  40.3825704  60.9177779  -5.5394425
  38.9348005  61.0059024  -5.1057696  45.1166359  62.5221875  -6.6657087
  45.5249715  62.0804286  -7.4102454  44.3943621  61.9474503  -6.4122894
  41.4697429  57.4594482  -9.2923530  42.3158625  57.8833896  -9.1488881
  41.4096067  56.8028107  -8.5984967  44.6196875  55.1198851  -7.6342356
  44.3757807  55.8740911  -8.1708080  44.8956805  55.4984198  -6.7995109
  38.3772384  57.5332383  -4.4613938  37.7471044  58.2148664  -4.2278541
  38.2708471  57.4215465  -5.4060800  41.4537769  64.0893462  -8.6282023
  41.5182201  64.5513869  -7.7923851  40.7448693  63.4590827  -8.4999713
  37.6553126  51.8353149  -2.0988687  37.2620072  51.2819348  -1.4241043
  38.4719267  52.1463727  -1.7082170  40.5721087  53.2511028  -4.5068431
  41.3130801  53.8518181  -4.5863968  40.8039010  52.5088666  -5.0650388
  35.7162425  58.4367395  -6.2290201  35.6015940  57.5352653  -5.9283102
  34.8606943  58.6831092  -6.5805384  42.7954263  66.3785136  -4.6302700
  42.3518117  65.5921514  -4.9481796  43.4571477  66.5664286  -5.2958809
  41.3508555  64.1732065  -5.7597791  41.8836892  63.4120353  -5.9898483
  40.8222636  63.8805717  -5.0173636  44.1253567  57.9158367  -8.0304947
  44.4802955  58.1429841  -7.1710482  44.7725698  58.2476744  -8.6527692
  45.8051342  63.2983774  -4.2070581  45.6536848  63.0694325  -5.1240497
  45.7956021  64.2554375  -4.1939236  42.5736678  60.8715687  -9.2224314
  43.5028738  61.0226846  -9.3955347  42.1527708  60.9599707 -10.0775668
  36.8974469  59.6815584  -8.5384358  36.7594267  58.9495823  -7.9372819
  37.8079393  59.5924484  -8.8200170  39.5256770  59.3935543  -9.0500678
  40.2356388  58.7528735  -9.0914060  39.4826078  59.6448438  -8.1274497
  38.5572706  66.6025210  -7.9555147  39.2582166  67.2361693  -7.8025752
  38.0867821  66.9439942  -8.7159507  42.4061565  59.8989629  -3.6436559
  41.7302202  59.7983758  -2.9734184  43.2289199  59.7428842  -3.1800562
  35.6001114  55.6254838  -5.1584024  36.2273153  55.2431916  -4.5446500
  34.7429033  55.4069040  -4.7928332  45.9995223  66.0317814  -3.5530289
  46.5435127  66.6447772  -4.0475334  45.4182067  66.5897392  -3.0363276
  38.8369171  54.9472744  -3.4970105  38.8857327  55.8234867  -3.8792335
  39.3791685  54.4050137  -4.0698461  49.3224017  65.4913868  -4.2168967
  48.5319561  65.4738007  -4.7564468  49.0857371  66.0302161  -3.4619931
  49.4421892  62.3406334  -6.9036239  49.4919897  62.1756341  -5.9620716
  49.3335815  61.4733593  -7.2938358  46.7325654  58.3237262  -5.5876932
  47.6335517  58.1843727  -5.8792934  46.8073629  58.4891717  -4.6478755
  41.0668460  55.7004117  -6.7423746  40.1971769  55.9937683  -7.0141157
  41.3027940  56.2844562  -6.0216482  47.8928946  56.7601650  -9.9585854
  48.8446369  56.8599748  -9.9373630  47.7232396  55.9679919  -9.4487769
  42.0939047  62.9021569  -3.3415693  43.0142057  63.0800168  -3.1475647
  42.0588630  61.9577614  -3.4935994  39.9628985  56.3855809  -1.3090163
  39.8625712  57.3350166  -1.3778072  39.7450527  56.0574048  -2.1814093
  39.8260255  59.8152948  -2.4925101  39.3427337  60.6153308  -2.2861212
  39.9121194  59.8260893  -3.4457657  35.7533593  63.7057483 -10.4556668
  36.7076846  63.6741425 -10.5226736  35.5546116  63.2448107  -9.6406442
  36.3432975  62.2758599  -7.8885870  37.1625864  62.7702678  -7.8651033
  36.6169782  61.3590567  -7.9168302  44.1221281  63.6777580  -1.6901532
  44.9912441  63.8518233  -2.0514897  43.6428033  64.4971997  -1.8125803
  35.9365380  53.7564350  -3.0918659  36.7996842  53.4001155  -2.8815334
  35.3630791  53.4178245  -2.4043254  48.4946881  67.1645067  -2.0988687
  48.1013826  66.6111265  -1.4241043  49.3113021  67.4755645  -1.7082170
  46.7759134  69.0856268  -3.0918659  47.6390596  68.7293073  -2.8815334
  46.2024545  68.7470163  -2.4043254
 105.2514826 105.2514826 105.2514826 109.4712190 109.4712190 109.4712190
